! TOUCHSTONE file generated by CST MICROWAVE STUDIO
! Date and time: Tue Jun  7 20:03:43 2022
! Project name: AppElm_antenne_patch_FR4.cst
! Parameters = {L=40.5; W=58.5; e=0.035; h=1.6; lambda=0.190476; ls=120; w0=1.6; w1=0.533333; ws=120; y0=20; y1=23.8095}
! Header version: 2018
! Port assignment regex: !\s*Touchstone port\s*([0-9]+)\s*=\s*(CST MWS port|CST DS port)\s*([0-9]+|Zmin|Zmax)\s*\(\"(.*)\"\)(\s*mode\s*([0-9]+))?.*
! Touchstone port assignment:
! Touchstone port 1 = CST MWS port 1 ("")
# GHz S MA R 50
0                      0.9966473              -0
0.004                  0.9969111       -9.121563
0.008                  0.9976587       -18.17291
0.012                  0.9987653        -27.0866
0.016                   1.000047       -35.80045
0.02                    1.001293       -44.25947
0.024                   1.002298        -52.4172
0.028                   1.002901       -60.23653
0.032                   1.003005       -67.68994
0.036                   1.002599       -74.75974
0.04                    1.001755       -81.43775
0.044                   1.000616       -87.72524
0.048                  0.9993747       -93.63225
0.052                  0.9982395       -99.17682
0.056                  0.9973993       -104.3837
0.06                   0.9969923       -109.2823
0.064                  0.9970819       -113.9046
0.068                  0.9976471       -118.2825
0.072                  0.9985859       -122.4456
0.076                  0.9997342        -126.419
0.08                    1.000895        -130.222
0.084                   1.001871       -133.8681
0.088                   1.002499       -137.3652
0.092                   1.002678        -140.717
0.096                   1.002383       -143.9244
0.1                      1.00167       -146.9878
0.104                   1.000666       -149.9089
0.108                  0.9995476       -152.6919
0.112                  0.9985098       -155.3449
0.116                   0.997733       -157.8798
0.12                    0.997352       -160.3114
0.124                  0.9974315       -162.6568
0.128                  0.9979566       -164.9328
0.132                  0.9988341       -167.1544
0.136                  0.9999107       -169.3332
0.14                    1.000999       -171.4759
0.144                   1.001912       -173.5844
0.148                   1.002492       -175.6562
0.152                   1.002642       -177.6853
0.156                   1.002337        -179.664
0.16                    1.001631        178.4151
0.164                   1.000648        176.5576
0.168                  0.9995589         174.766
0.172                  0.9985535        173.0382
0.176                  0.9978066        171.3681
0.18                   0.9974489        169.7458
0.184                   0.997542        168.1593
0.188                  0.9980692         166.596
0.192                  0.9989376         165.045
0.196                  0.9999947        163.4984
0.2                     1.001056        161.9526
0.204                   1.001936        160.4086
0.208                   1.002483        158.8717
0.212                   1.002601        157.3501
0.216                    1.00227        155.8534
0.22                    1.001547        154.3909
0.224                   1.000557          152.97
0.228                  0.9994712        151.5941
0.232                  0.9984794        150.2628
0.236                  0.9977549        148.9709
0.24                   0.9974241        147.7097
0.244                  0.9975452        146.4681
0.248                  0.9980971        145.2347
0.252                  0.9989825        143.9995
0.256                   1.000046        142.7558
0.26                    1.001101        141.5011
0.264                   1.001964        140.2373
0.268                   1.002483        138.9708
0.272                   1.002568        137.7104
0.276                   1.002203        136.4666
0.28                     1.00145        135.2491
0.284                   1.000441        134.0656
0.288                    0.99935        132.9199
0.292                  0.9983685        131.8115
0.296                  0.9976688        130.7353
0.3                    0.9973746        129.6827
0.304                  0.9975379        128.6426
0.308                  0.9981309         127.604
0.312                  0.9990491        126.5571
0.316                   1.000131        125.4958
0.32                    1.001188        124.4183
0.324                   1.002033        123.3272
0.328                   1.002519        122.2293
0.332                   1.002559        121.1342
0.336                   1.002147        120.0527
0.34                    1.001352        118.9949
0.344                   1.000313        117.9681
0.348                  0.9992119        116.9762
0.352                  0.9982418        116.0182
0.356                  0.9975745        115.0888
0.36                   0.9973287        114.1787
0.364                  0.9975492         113.277
0.368                  0.9981977        112.3723
0.372                  0.9991605        111.4555
0.376                   1.000268        110.5207
0.38                    1.001326        109.5666
0.384                   1.002147        108.5968
0.388                   1.002587        107.6186
0.392                   1.002568        106.6422
0.396                   1.002092        105.6786
0.4                     1.001241        104.7379
0.404                   1.000164        103.8275
0.408                    0.99905        102.9505
0.412                   0.998096        102.1056
0.416                  0.9974714        101.2866
0.42                   0.9972886         100.484
0.424                  0.9975814        99.68616
0.428                  0.9982991        98.88194
0.432                  0.9993153        98.06229
0.436                    1.00045        97.22196
0.44                    1.001504        96.36045
0.444                    1.00229          95.482
0.448                   1.002668         94.5948
0.452                   1.002572        93.70952
0.456                   1.002016        92.83758
0.46                    1.001097        91.98894
0.464                  0.9999756         91.1706
0.468                  0.9988497        90.38516
0.472                  0.9979194        89.63029
0.476                  0.9973508        88.89916
0.48                   0.9972467        88.18141
0.484                  0.9976275        87.46523
0.488                  0.9984263        86.73929
0.492                   0.999502        85.99491
0.496                   1.000664        85.22757
0.5                     1.001705        84.43765
0.504                   1.002442        83.63035
0.508                   1.002741        82.81471
0.512                    1.00255        82.00202
0.516                   1.001898        81.20388
0.52                    1.000901        80.43016
0.524                  0.9997323        79.68728
0.528                  0.9985994        78.97702
0.532                  0.9977043        78.29605
0.536                  0.9972078        77.63651
0.54                   0.9972003        76.98736
0.544                  0.9976846        76.33631
0.548                  0.9985758        75.67208
0.552                  0.9997152        74.98653
0.556                     1.0009        74.27597
0.56                    1.001919        73.54186
0.564                   1.002591        72.79051
0.568                   1.002794        72.03187
0.572                    1.00249        71.27786
0.576                   1.001731        70.54023
0.58                    1.000649         69.8286
0.584                  0.9994344        69.14865
0.588                   0.998304         68.5011
0.592                  0.9974598        67.88146
0.596                  0.9970543        67.28076
0.6                    0.9971622        66.68711
0.604                   0.997766        66.08784
0.608                  0.9987589        65.47188
0.612                  0.9999638        64.83174
0.616                   1.001166        64.16477
0.62                    1.002149        63.47375
0.624                   1.002739        62.76611
0.628                   1.002827        62.05288
0.632                   1.002395        61.34651
0.636                   1.001518        60.65888
0.64                    1.000349        59.99911
0.644                  0.9990948        59.37197
0.648                  0.9979797        58.77698
0.652                  0.9972044        58.20825
0.656                  0.9969102         57.6556
0.66                   0.9971523         57.1063
0.664                  0.9978889        56.54744
0.668                  0.9989897        55.96822
0.672                   1.000258        55.36202
0.676                   1.001466         54.7275
0.68                    1.002398        54.06878
0.684                   1.002886        53.39471
0.688                    1.00284        52.71729
0.692                   1.002266        52.04952
0.696                   1.001262        51.40319
0.7                     1.000006        50.78684
0.704                  0.9987204         50.2041
0.708                  0.9976362        49.65298
0.712                  0.9969499        49.12615
0.716                   0.996787        48.61213
0.72                     0.99718        48.09738
0.724                  0.9980602         47.5688
0.728                   0.999271        47.01615
0.732                   1.000595        46.43386
0.736                   1.001796        45.82207
0.74                    1.002656        45.18648
0.744                   1.003021        44.53735
0.748                   1.002822        43.88767
0.752                    1.00209        43.25092
0.756                   1.000954        42.63867
0.76                   0.9996135        42.05859
0.764                   0.998308        41.51297
0.768                  0.9972727        40.99818
0.772                  0.9966961        40.50525
0.776                  0.9966851        40.02137
0.78                   0.9972445        39.53227
0.784                   0.998276        39.02486
0.788                  0.9995953         38.4896
0.792                   1.000965        37.92226
0.796                    1.00214        37.32464
0.8                     1.002906        36.70415
0.804                   1.003125        36.07253
0.808                   1.002753        35.44373
0.812                   1.001853        34.83155
0.816                   1.000581        34.24717
0.82                   0.9991632        33.69717
0.824                  0.9978531        33.18226
0.828                  0.9968878        32.69697
0.832                  0.9964442        32.23058
0.836                  0.9966058        31.76898
0.84                   0.9973464        31.29727
0.844                  0.9985351        30.80254
0.848                  0.9999585         30.2762
0.852                   1.001361        29.71561
0.856                   1.002489        29.12441
0.86                    1.003138        28.51185
0.864                   1.003189        27.89116
0.868                   1.002627         27.2772
0.872                   1.001548        26.68393
0.876                   1.000142        26.12192
0.88                   0.9986569        25.59642
0.884                  0.9973613         25.1063
0.888                  0.9964903        24.64411
0.892                  0.9962048        24.19727
0.896                  0.9965602        23.75041
0.9                    0.9974959        23.28813
0.904                  0.9988453        22.79793
0.908                   1.000366        22.27247
0.912                   1.001785        21.71089
0.916                   1.002844        21.11888
0.92                    1.003352        20.50763
0.924                   1.003211        19.89184
0.928                   1.002443        19.28722
0.932                   1.001179        18.70768
0.936                  0.9996408        18.16295
0.94                   0.9981035        17.65668
0.944                  0.9968446        17.18568
0.948                  0.9960943        16.74032
0.952                  0.9959927        16.30615
0.956                   0.996563        15.86655
0.96                   0.9977059        15.40584
0.964                  0.9992174        14.91218
0.968                   1.000826        14.37971
0.972                   1.002242        13.80963
0.976                   1.003208        13.20985
0.98                    1.003547        12.59357
0.984                   1.003192        11.97698
0.988                   1.002201        11.37645
0.992                   1.000745        10.80571
0.996                  0.9990814        10.27334
1                      0.9975074        9.781147
1.004                  0.9963088        9.323638
1.008                  0.9957066        8.888832
1.012                  0.9958152         8.46036
1.016                  0.9966204        8.020481
1.02                   0.9979809        7.553399
1.024                  0.9996534          7.0482
1.028                   1.001337        6.500833
1.032                   1.002728        5.914767
1.036                   1.003573        5.300302
1.04                    1.003715        4.672731
1.044                   1.003122        4.049683
1.048                   1.001892        3.448093
1.052                   1.000238        2.881243
1.056                  0.9984542        2.356336
1.06                   0.9968604        1.873027
1.064                  0.9957471        1.423266
1.068                  0.9953216       0.9925778
1.072                  0.9956671       0.5626416
1.076                  0.9967274       0.1146939
1.08                   0.9983151      -0.3669499
1.084                   1.000146      -0.8919851
1.088                   1.001891       -1.462392
1.092                   1.003233       -2.072161
1.096                   1.003928       -2.708428
1.1                     1.003842       -3.353745
1.104                   1.002984       -3.989067
1.108                   1.001497       -4.597035
1.112                  0.9996394       -5.165061
1.116                   0.997742       -5.687597
1.12                   0.9961462       -6.167433
1.124                  0.9951449       -6.615411
1.128                  0.9949262       -7.048734
1.132                  0.9955376       -7.487664
1.136                  0.9968751       -7.951894
1.14                   0.9987016       -8.456767
1.144                    1.00069       -9.010471
1.148                   1.002481        -9.61261
1.152                   1.003751       -10.25437
1.156                   1.004264       -10.92014
1.16                    1.003919       -11.59022
1.164                   1.002767       -12.24417
1.168                   1.001002       -12.86435
1.172                  0.9989325       -13.43902
1.176                  0.9969269       -13.96462
1.18                   0.9953478       -14.44676
1.184                  0.9944868        -14.8994
1.188                  0.9945087       -15.34255
1.192                   0.995419       -15.79858
1.196                  0.9970603         -16.288
1.2                    0.9991415       -16.82558
1.204                   1.001289        -17.4177
1.208                   1.003115       -18.06127
1.212                   1.004287       -18.74437
1.216                   1.004586       -19.44842
1.22                    1.003946        -20.1513
1.224                   1.002465       -20.83118
1.228                   1.000397       -21.47019
1.232                   0.998102       -22.05769
1.236                  0.9959896       -22.59245
1.24                    0.994444       -23.08321
1.244                  0.9937534       -23.54744
1.248                   0.994054        -24.0083
1.252                  0.9953028       -24.49033
1.256                  0.9972829       -25.01483
1.26                   0.9996423        -25.5958
1.264                   1.001958       -26.23753
1.268                   1.003811       -26.93383
1.272                   1.004861       -27.66932
1.276                   1.004908       -28.42212
1.28                    1.003927       -29.16749
1.284                   1.002073       -29.88203
1.288                  0.9996628       -30.54772
1.292                  0.9971167       -31.15519
1.296                  0.9948901       -31.70589
1.3                    0.9933907       -32.21218
1.304                  0.9929015       -32.69552
1.308                  0.9935256       -33.18264
1.312                  0.9951641       -33.70053
1.316                  0.9975312       -34.27132
1.32                    1.000206       -34.90811
1.324                    1.00271       -35.61271
1.328                   1.004587       -36.37544
1.332                    1.00549       -37.17697
1.336                    1.00524        -37.9916
1.34                    1.003858       -38.79156
1.344                   1.001564       -39.55162
1.348                  0.9987493       -40.25346
1.352                  0.9959044       -40.88919
1.356                  0.9935396        -41.4633
1.36                   0.9920905       -41.99244
1.364                  0.9918357       -42.50278
1.368                  0.9928405       -43.02533
1.372                  0.9949404       -43.59005
1.376                   0.997769       -44.22012
1.38                    1.000823       -44.92764
1.384                   1.003555       -45.71161
1.388                   1.005465       -46.55824
1.392                   1.006194       -47.44351
1.396                   1.005585       -48.33714
1.4                     1.003712       -49.20756
1.404                   1.000873        -50.0271
1.408                   0.997548       -50.77686
1.412                  0.9943159       -51.45047
1.416                  0.9917579         -52.056
1.42                    0.990349       -52.61528
1.424                  0.9903669       -53.16044
1.428                  0.9918341       -53.72798
1.432                  0.9945078       -54.35182
1.436                  0.9979213       -55.05678
1.44                    1.001467       -55.85402
1.444                   1.004506       -56.73924
1.448                   1.006478        -57.6937
1.452                   1.007002       -58.68748
1.456                    1.00594       -59.68436
1.46                    1.003428       -60.64758
1.464                  0.9998611       -61.54586
1.468                  0.9958342       -62.35891
1.472                   0.992046       -63.08179
1.476                  0.9891786       -63.72687
1.48                   0.9877703       -64.32277
1.484                  0.9881095       -64.90962
1.488                  0.9901705       -65.53179
1.492                  0.9936114       -66.22916
1.496                  0.9978315       -67.02944
1.5                     1.002078       -67.94318
1.504                    1.00558        -68.9622
1.508                    1.00768       -70.06136
1.512                    1.00795       -71.20273
1.516                   1.006266       -72.34163
1.52                    1.002837       -73.43342
1.524                   0.998184       -74.44068
1.528                  0.9930686       -75.33997
1.532                  0.9883693       -76.12717
1.536                  0.9849318        -76.8201
1.54                     0.98341       -77.45695
1.544                  0.9841312       -78.09033
1.548                  0.9870189       -78.77723
1.552                  0.9915941       -79.56792
1.556                  0.9970559       -80.49607
1.56                    1.002422       -81.57277
1.564                   1.006701       -82.78511
1.568                   1.009058        -84.0989
1.572                    1.00896        -85.4642
1.576                   1.006267       -86.82261
1.58                    1.001276       -88.11576
1.584                  0.9946922       -89.29424
1.588                  0.9875447       -90.32669
1.592                  0.9810296       -91.20762
1.596                  0.9763073       -91.96191
1.6                    0.9742813       -92.64385
1.604                  0.9754027       -93.32889
1.608                  0.9795517        -94.0995
1.612                  0.9860341       -95.02843
1.616                  0.9936911       -96.16432
1.62                    1.001099       -97.52335
1.624                   1.006809        -99.0877
1.628                    1.00958       -100.8096
1.632                   1.008581       -102.6184
1.636                   1.003536       -104.4302
1.64                   0.9947978       -106.1575
1.644                  0.9833554       -107.7214
1.648                  0.9707442        -109.066
1.652                  0.9588563       -110.1729
1.656                  0.9496431       -111.0749
1.66                   0.9447359       -111.8613
1.664                  0.9450598       -112.6693
1.668                  0.9505438       -113.6603
1.672                  0.9600259       -114.9872
1.676                  0.9713806       -116.7653
1.68                   0.9818177        -119.056
1.684                  0.9882524       -121.8648
1.688                  0.9876553       -125.1501
1.692                  0.9773403       -128.8329
1.696                  0.9551723       -132.8053
1.7                     0.919714        -136.932
1.704                  0.8703304        -141.044
1.708                  0.8072821       -144.9209
1.712                  0.7318459       -148.2555
1.716                  0.6465356       -150.5865
1.72                   0.5555783       -151.1787
1.724                  0.4659515       -148.8421
1.728                  0.3893417       -141.8851
1.732                   0.343658       -129.2522
1.736                   0.345994        -113.842
1.74                   0.3951971       -101.7206
1.744                  0.4732948       -95.29082
1.748                  0.5629014       -93.31578
1.752                  0.6529269       -94.13575
1.756                  0.7367879       -96.61284
1.76                   0.8105252       -100.0458
1.764                  0.8718302       -103.9935
1.768                  0.9195964       -108.1607
1.772                  0.9537051       -112.3353
1.776                  0.9749008       -116.3548
1.78                   0.9846926       -120.0903
1.784                  0.9852397       -123.4408
1.788                  0.9791961        -126.335
1.792                  0.9694975        -128.739
1.796                  0.9590791       -130.6653
1.8                    0.9505423       -132.1784
1.804                  0.9458183       -133.3916
1.808                  0.9459131       -134.4502
1.812                  0.9508175       -135.5034
1.816                  0.9596196        -136.676
1.82                   0.9707833       -138.0471
1.824                  0.9825073       -139.6444
1.828                   0.993068        -141.449
1.832                   1.001085       -143.4078
1.836                   1.005688       -145.4479
1.84                    1.006594       -147.4889
1.844                    1.00409       -149.4545
1.848                  0.9989605       -151.2815
1.852                   0.992343       -152.9285
1.856                   0.985546       -154.3814
1.86                   0.9798359       -155.6568
1.864                  0.9762262       -156.7995
1.868                  0.9753099       -157.8745
1.872                  0.9771706       -158.9545
1.876                  0.9813941       -160.1053
1.88                    0.987176       -161.3737
1.884                  0.9934935        -162.781
1.888                  0.9992988       -164.3219
1.892                   1.003696       -165.9682
1.896                   1.006072       -167.6763
1.9                     1.006179       -169.3945
1.904                   1.004148       -171.0717
1.908                   1.000451       -172.6642
1.912                  0.9958204       -174.1425
1.916                   0.991117       -175.4962
1.92                   0.9871874       -176.7351
1.924                  0.9847168       -177.8888
1.928                  0.9841105       -179.0004
1.932                  0.9854278        179.8815
1.936                  0.9883842        178.7122
1.94                   0.9924169        177.4591
1.944                  0.9967995        176.1072
1.948                   1.000778        174.6603
1.952                   1.003699        173.1387
1.956                   1.005118         171.575
1.96                    1.004857        170.0081
1.964                   1.003031        168.4766
1.968                   1.000013        167.0133
1.972                  0.9963726        165.6397
1.976                  0.9927757        164.3625
1.98                   0.9898674        163.1722
1.984                  0.9881586        162.0444
1.988                  0.9879347        160.9449
1.992                  0.9892073        159.8356
1.996                  0.9917183        158.6823
2                      0.9949946        157.4608
2.004                  0.9984414        156.1612
2.008                   1.001451        154.7884
2.012                   1.003511        153.3609
2.016                   1.004285        151.9069
2.02                    1.003671         150.459
2.024                   1.001806        149.0494
2.028                  0.9990442        147.7041
2.032                  0.9958947         146.439
2.036                  0.9929307        145.2566
2.04                   0.9906874        144.1456
2.044                  0.9895656        143.0826
2.048                  0.9897586        142.0364
2.052                  0.9912154         140.974
2.056                  0.9936555        139.8674
2.06                    0.996623         138.698
2.064                  0.9995749        137.4604
2.068                   1.001979        136.1625
2.072                    1.00341        134.8237
2.076                    1.00362        133.4714
2.08                    1.002578         132.136
2.084                   1.000477        130.8459
2.088                  0.9976994        129.6227
2.092                  0.9947486        128.4774
2.096                  0.9921625        127.4081
2.1                    0.9904155        126.3998
2.104                  0.9898284        125.4273
2.108                  0.9905073        124.4593
2.112                  0.9923229         123.465
2.116                   0.994935        122.4199
2.12                   0.9978579        121.3102
2.124                   1.000551        120.1354
2.128                   1.002517        118.9077
2.132                    1.00339        117.6497
2.136                   1.003001        116.3906
2.14                    1.001406        115.1607
2.144                  0.9988802        113.9867
2.148                    0.99587        112.8871
2.152                   0.992919        111.8679
2.156                  0.9905695        110.9217
2.16                   0.9892611        110.0281
2.164                  0.9892452        109.1574
2.168                  0.9905335         108.276
2.172                  0.9928919        107.3533
2.176                  0.9958841        106.3672
2.18                   0.9989523        105.3087
2.184                    1.00152         104.183
2.188                   1.003097        103.0084
2.192                   1.003367        101.8131
2.196                   1.002244        100.6302
2.2                    0.9998931        99.49229
2.204                  0.9967079        98.42571
2.208                  0.9932449        97.44577
2.212                  0.9901295         96.5532
2.216                   0.987942        95.73312
2.22                   0.9871043        94.95706
2.224                  0.9877941        94.18799
2.228                  0.9899029        93.38744
2.232                  0.9930507        92.52317
2.236                  0.9966541        91.57547
2.24                    1.000034        90.54081
2.244                   1.002539        89.43214
2.248                   1.003663        88.27663
2.252                   1.003134        87.11088
2.256                   1.000975        85.97504
2.26                   0.9975015        84.90623
2.264                  0.9932826        83.93179
2.268                  0.9890505        83.06388
2.272                   0.985573        82.29576
2.276                  0.9835095        81.60159
2.28                   0.9832775        80.94016
2.284                  0.9849591        80.26241
2.288                  0.9882716        79.52117
2.292                  0.9926105        78.68076
2.296                  0.9971591        77.72382
2.3                     1.001035        76.65443
2.304                   1.003448         75.4971
2.308                   1.003842        74.29257
2.312                      1.002        73.09131
2.316                  0.9980913        71.94578
2.32                   0.9926687        70.90195
2.324                  0.9865933        69.99062
2.328                  0.9809026        69.22023
2.332                  0.9766289        68.57221
2.336                  0.9745974         68.0016
2.34                   0.9752449        67.44374
2.344                  0.9785056        66.82648
2.348                  0.9837956        66.08505
2.352                  0.9901058        65.17527