! TOUCHSTONE file generated by CST MICROWAVE STUDIO
! Date and time: Tue Jun  7 20:03:48 2022
! Project name: AppElm_antenne_patch_FR4.cst
! Parameters = {L=51.75; W=58.5; e=0.035; h=1.6; lambda=0.190476; ls=120; w0=1.6; w1=0.533333; ws=120; y0=20; y1=23.8095}
! Header version: 2018
! Port assignment regex: !\s*Touchstone port\s*([0-9]+)\s*=\s*(CST MWS port|CST DS port)\s*([0-9]+|Zmin|Zmax)\s*\(\"(.*)\"\)(\s*mode\s*([0-9]+))?.*
! Touchstone port assignment:
! Touchstone port 1 = CST MWS port 1 ("")
# GHz S MA R 50
0                      0.9825434              -0
0.004                  0.9836634       -11.19669
0.008                  0.9868547       -22.26811
0.012                    0.99164       -33.09726
0.016                  0.9973161       -43.58191
0.02                    1.003069       -53.63807
0.024                   1.008102       -63.20065
0.028                   1.011748       -72.22205
0.032                    1.01356       -80.66999
0.036                   1.013367       -88.52545
0.04                    1.011288       -95.78166
0.044                   1.007706       -102.4441
0.048                   1.003213       -108.5313
0.052                  0.9985207        -114.076
0.056                  0.9943477       -119.1253
0.06                   0.9913127       -123.7389
0.064                  0.9898325       -127.9861
0.068                  0.9900602       -131.9391
0.072                  0.9918666       -135.6665
0.076                  0.9948724       -139.2265
0.08                   0.9985236       -142.6618
0.084                   1.002192        -145.998
0.088                   1.005281       -149.2434
0.092                   1.007317       -152.3927
0.096                    1.00802       -155.4308
0.1                     1.007339       -158.3382
0.104                   1.005446       -161.0959
0.108                   1.002709       -163.6903
0.112                   0.999621       -166.1168
0.116                  0.9967202       -168.3823
0.12                   0.9944988       -170.5053
0.124                  0.9933178       -172.5139
0.128                  0.9933482       -174.4424
0.132                  0.9945446       -176.3253
0.136                    0.99666       -178.1927
0.14                   0.9992962        179.9344
0.144                   1.001979        178.0468
0.148                   1.004242        176.1471
0.152                   1.005707        174.2478
0.156                   1.006144         172.369
0.16                    1.005502        170.5336
0.164                   1.003918        168.7634
0.168                   1.001686        167.0754
0.172                  0.9992097        165.4781
0.176                  0.9969267        163.9703
0.18                   0.9952365        162.5402
0.184                  0.9944275        161.1678
0.188                  0.9946278        159.8278
0.192                  0.9957831        158.4943
0.196                  0.9976704        157.1456
0.2                    0.9999421         155.767
0.204                   1.002189         154.354
0.208                   1.004016        152.9118
0.212                   1.005109        151.4542
0.216                   1.005287        150.0007
0.22                    1.004529        148.5731
0.224                   1.002978        147.1917
0.228                   1.000916        145.8716
0.232                  0.9987107        144.6202
0.236                  0.9967537        143.4359
0.24                   0.9953917        142.3074
0.244                  0.9948626        141.2165
0.248                   0.995254        140.1406
0.252                  0.9964869        139.0573
0.256                  0.9983333         137.948
0.26                    1.000458        136.8019
0.264                   1.002481        135.6168
0.268                   1.004045        134.3996
0.272                   1.004878         133.165
0.276                   1.004838        131.9323
0.28                    1.003937        130.7223
0.284                   1.002338        129.5537
0.288                   1.000327          128.44
0.292                  0.9982609        127.3869
0.296                  0.9965089         126.391
0.3                    0.9953834        125.4405
0.304                  0.9950848        124.5171
0.308                  0.9956636        123.5991
0.312                   0.997013        122.6656
0.316                  0.9988872        121.7006
0.32                    1.000949        120.6952
0.324                   1.002832        119.6496
0.328                   1.004201        118.5723
0.332                   1.004817        117.4789
0.336                   1.004573         116.389
0.34                    1.003513        115.3229
0.344                   1.001825        114.2981
0.348                  0.9998086        113.3264
0.352                  0.9978232        112.4116
0.356                  0.9962241        111.5486
0.36                   0.9952988        110.7243
0.364                  0.9952139        109.9196
0.368                  0.9959848        109.1131
0.372                  0.9974719         108.285
0.376                  0.9994072        107.4207
0.38                    1.001444        106.5136
0.384                   1.003218        105.5659
0.388                   1.004416        104.5879
0.392                   1.004824        103.5964
0.396                    1.00437        102.6115
0.4                     1.003133        101.6532
0.404                   1.001331         100.738
0.408                  0.9992828        99.87608
0.412                  0.9973544        99.06925
0.416                   0.995892        98.31043
0.42                   0.9951605        97.58475
0.424                  0.9952938        96.87212
0.428                  0.9962694        96.15104
0.432                  0.9979122        95.40253
0.436                   0.999927        94.61366
0.44                    1.001953        93.77982
0.444                   1.003627        92.90534
0.448                   1.004652        92.00258
0.452                   1.004844        91.08968
0.456                   1.004166        90.18738
0.46                    1.002735        89.31554
0.464                   1.000802        88.48965
0.468                  0.9987112        87.71813
0.472                  0.9968357        87.00061
0.476                  0.9955149        86.32771
0.48                   0.9949899        85.68266
0.484                  0.9953588        85.04417
0.488                  0.9965576        84.39049
0.492                   0.998372        83.70349
0.496                   1.000476        82.97189
0.5                     1.002492        82.19334
0.504                    1.00406        81.37461
0.508                   1.004898        80.53015
0.512                   1.004854         79.6797
0.516                   1.003931        78.84468
0.52                    1.002289        78.04477
0.524                   1.000216         77.2943
0.528                   0.998082        76.59973
0.532                  0.9962697        75.95822
0.536                   0.995109        75.35789
0.54                   0.9948143        74.77979
0.544                  0.9954437        74.20133
0.548                  0.9968868         73.6006
0.552                  0.9988859        72.96039
0.556                   1.001082        72.27139
0.56                     1.00308        71.53373
0.564                   1.004522        70.75681
0.568                   1.005147        69.95746
0.572                    1.00484        69.15704
0.576                   1.003648        68.37777
0.58                    1.001778        67.63893
0.584                  0.9995607        66.95351
0.588                  0.9973905        66.32568
0.592                  0.9956605        65.74983
0.596                   0.994688        65.21124
0.6                    0.9946549        64.68865
0.604                  0.9955735        64.15813
0.608                   0.997282        63.59773
0.612                  0.9994744        62.99144
0.616                   1.001757        62.33222
0.62                    1.003718        61.62304
0.624                   1.005006        60.87618
0.628                   1.005384        60.11106
0.632                    1.00478        59.35073
0.636                   1.003292        58.61808
0.64                    1.001179        57.93188
0.644                  0.9988142        57.30341
0.648                  0.9966222        56.73422
0.652                  0.9950018         56.2155
0.656                  0.9942526        55.72943
0.66                   0.9945185        55.25226
0.664                  0.9957585        54.75881
0.668                  0.9977528        54.22723
0.672                   1.000144        53.64314
0.676                   1.002501        53.00207
0.68                    1.004399        52.31027
0.684                   1.005495        51.58322
0.688                   1.005585        50.84303
0.692                   1.004645        50.11455
0.696                   1.002831        49.42121
0.7                     1.000459        48.78098
0.704                   0.997951        48.20305
0.708                  0.9957583        47.68589
0.712                  0.9942827        47.21709
0.716                   0.993801        46.77536
0.72                   0.9944098        46.33438
0.724                  0.9960071        45.86779
0.728                  0.9983088        45.35417
0.732                   1.000901        44.78112
0.736                   1.003317        44.14733
0.74                    1.005119        43.46263
0.744                   1.005979        42.74609
0.748                   1.005733        42.02266
0.752                   1.004412        41.31902
0.756                    1.00224        40.65897
0.76                   0.9995962        40.05936
0.764                   0.996952        39.52683
0.768                  0.9947866        39.05622
0.772                  0.9935006        38.63101
0.776                   0.993339        38.22614
0.78                    0.994343        37.81257
0.784                  0.9963397         37.3629
0.788                  0.9989728        36.85653
0.792                   1.001769        36.28357
0.796                   1.004223        35.64633
0.8                     1.005889        34.95877
0.804                    1.00646        34.24387
0.808                    1.00582        33.52969
0.812                   1.004068        32.84467
0.816                   1.001501        32.21284
0.82                   0.9985708        31.64952
0.824                  0.9958008        31.15822
0.828                  0.9936975        30.72954
0.832                  0.9926546        30.34227
0.836                  0.9928768        29.96713
0.84                   0.9943379         29.5723
0.844                  0.9967834        29.12947
0.848                   0.999776        28.61936
0.852                   1.002777        28.03513
0.856                   1.005243        27.38337
0.86                    1.006725        26.68275
0.864                   1.006943        25.96056
0.868                    1.00584        25.24824
0.872                   1.003593        24.57604
0.876                   1.000585        23.96801
0.88                   0.9973469        23.43746
0.884                  0.9944611        22.98413
0.888                  0.9924599        22.59356
0.892                  0.9917238        22.23912
0.896                  0.9924063        21.88685
0.9                    0.9944003        21.50189
0.904                  0.9973558        21.05533
0.908                   1.000744        20.52965
0.912                   1.003953         19.9218
0.916                   1.006401        19.24341
0.92                    1.007637        18.51853
0.924                    1.00742         17.7794
0.928                   1.005764        17.06116
0.932                   1.002937        16.39604
0.936                  0.9994242        15.80785
0.94                   0.9958456        15.30738
0.944                  0.9928504        14.88977
0.948                  0.9909972        14.53444
0.952                  0.9906465        14.20841
0.956                  0.9918873        13.87226
0.96                   0.9945141        13.48788
0.964                  0.9980636        13.02588
0.968                   1.001899        12.47113
0.972                   1.005328        11.82524
0.976                   1.007725        11.10587
0.98                    1.008641        10.34339
0.984                   1.007883        9.575806
0.988                   1.005551        8.842577
0.992                   1.002026        8.178177
0.996                  0.9979124        7.606052
1                      0.9939399        7.133826
1.004                  0.9908352         6.75087
1.008                  0.9891863         6.42915
1.012                  0.9893263         6.12782
1.016                  0.9912622        5.800942
1.02                   0.9946671        5.406578
1.024                  0.9989384        4.915029
1.028                    1.00331        4.314269
1.032                    1.00699        3.611691
1.036                   1.009301        2.832298
1.04                    1.009801        2.014217
1.044                   1.008355         1.20248
1.048                    1.00517       0.4419225
1.052                   1.000766      -0.2301217
1.056                  0.9958994      -0.7905744
1.06                   0.9914374       -1.235763
1.064                  0.9882062       -1.583647
1.068                  0.9868314       -1.871901
1.072                  0.9876114       -2.151492
1.076                  0.9904477       -2.476784
1.08                   0.9948573       -2.894573
1.084                   1.000059       -3.434913
1.088                    1.00512       -4.105828
1.092                   1.009118       -4.892561
1.096                    1.01131       -5.760736
1.1                     1.011254       -6.662321
1.104                    1.00889        -7.54306
1.108                   1.004561        -8.35077
1.112                  0.9989681       -9.043925
1.116                  0.9930712       -9.599439
1.12                   0.9879279       -10.01848
1.124                  0.9845045       -10.32882
1.128                  0.9834865        -10.5814
1.132                  0.9851308       -10.84134
1.136                  0.9892003       -11.17497
1.14                   0.9949987       -11.63614
1.144                   1.001499       -12.25575
1.148                   1.007531       -13.03667
1.152                   1.011989       -13.95439
1.156                   1.014023        -14.9619
1.16                    1.013179       -15.99742
1.164                   1.009485        -16.9934
1.168                   1.003465       -17.88645
1.172                  0.9960786       -18.62766
1.176                  0.9885821       -19.19234
1.18                    0.982327       -19.58768
1.184                  0.9785119        -19.8553
1.188                  0.9779372        -20.0663
1.192                   0.980822       -20.30835
1.196                   0.986735       -20.66739
1.2                    0.9946633       -21.20953
1.204                   1.003199       -21.96837
1.208                   1.010797        -22.9403
1.212                   1.016039       -24.08713
1.216                   1.017873       -25.34339
1.22                    1.015781       -26.62624
1.224                   1.009887        -27.8464
1.228                   1.000964       -28.92025
1.232                  0.9903694       -29.78302
1.236                  0.9798637       -30.40286
1.24                   0.9713362       -30.79282
1.244                  0.9664556       -31.01635
1.248                  0.9663098       -31.18089
1.252                  0.9711316       -31.41793
1.256                   0.980202       -31.85407
1.26                   0.9919644       -32.58349
1.264                   1.004313       -33.65047
1.268                   1.014968       -35.04529
1.272                   1.021851       -36.71054
1.276                     1.0234       -38.55218
1.28                     1.01881       -40.45197
1.284                   1.008184       -42.27967
1.288                  0.9926016       -43.90681
1.292                  0.9740764       -45.22425
1.296                  0.9553796       -46.16611
1.3                    0.9396769       -46.73774
1.304                  0.9299677       -47.03913
1.308                  0.9283973       -47.26703
1.312                  0.9356359        -47.6832
1.316                  0.9505694       -48.55459
1.32                   0.9704333       -50.09302
1.324                  0.9913064       -52.42206
1.328                   1.008744        -55.5781
1.332                   1.018347       -59.53318
1.336                   1.016177       -64.22256
1.34                    0.999019       -69.56774
1.344                  0.9645281       -75.49196
1.348                  0.9112927       -81.93059
1.352                  0.8388503       -88.83954
1.356                  0.7476654       -96.20694
1.36                    0.639084       -104.0785
1.364                  0.5152845       -112.6258
1.368                  0.3792892       -122.3777
1.372                  0.2354093       -135.3312
1.376                 0.09518635       -165.9547
1.38                  0.09730769        79.84497
1.384                  0.2378059        50.01402
1.388                  0.3813982         37.1505
1.392                   0.516934        27.41624
1.396                  0.6401647        18.86664
1.4                    0.7481167        10.98321
1.404                  0.8386598        3.597306
1.408                  0.9104959       -3.335901
1.412                  0.9632037       -9.804569
1.416                  0.9972801       -15.76506
1.42                    1.014158       -21.15355
1.424                   1.016189       -25.89448
1.428                   1.006575       -29.91076
1.432                  0.9892207        -33.1392
1.436                  0.9684773       -35.55299
1.44                   0.9487314       -37.18878
1.444                  0.9338498       -38.16876
1.448                  0.9265648       -38.70176
1.452                  0.9279926       -39.05096
1.456                  0.9375012       -39.47512
1.46                   0.9530081       -40.17003
1.464                   0.971582       -41.23688
1.468                  0.9901122       -42.68386
1.472                   1.005857       -44.44859
1.476                   1.016802       -46.42554
1.48                    1.021836       -48.48943
1.484                   1.020793       -50.51256
1.488                   1.014397       -52.37807
1.492                   1.004112       -53.99167
1.496                  0.9919274       -55.29334
1.5                    0.9800583       -56.26812
1.504                  0.9705933       -56.95282
1.508                  0.9651339       -57.43344
1.512                  0.9645057       -57.83022
1.516                  0.9686231       -58.27221
1.52                   0.9765531       -58.86933
1.524                  0.9867548       -59.69152
1.528                  0.9974126       -60.76059
1.532                   1.006775       -62.05365
1.536                   1.013431        -63.5138
1.54                    1.016493       -65.06327
1.544                   1.015688       -66.61624
1.548                    1.01136       -68.09022
1.552                   1.004393       -69.41662
1.556                  0.9960679       -70.55018
1.56                   0.9878567       -71.47665
1.564                  0.9811815       -72.21683
1.568                  0.9771668       -72.82458
1.572                  0.9764391       -73.37729
1.576                  0.9790214        -73.9606
1.58                   0.9843506       -74.65071
1.584                  0.9914115       -75.50002
1.588                   0.998947       -76.52955
1.592                   1.005692       -77.72863
1.596                    1.01058       -79.06032
1.6                       1.0129       -80.46975
1.604                   1.012383       -81.89349
1.608                   1.009225       -83.26884
1.612                   1.004038       -84.54249
1.616                   0.997751        -85.6782
1.62                    0.991459        -86.6629
1.624                  0.9862398       -87.50968
1.628                  0.9829698       -88.25646
1.632                  0.9821693       -88.95951
1.636                  0.9839139       -89.68261
1.64                   0.9878328        -90.4845
1.644                  0.9931929       -91.40797
1.648                  0.9990468       -92.47307
1.652                   1.004405       -93.67559
1.656                   1.008404       -94.98988
1.66                    1.010436       -96.37466
1.664                   1.010232       -97.78022
1.668                   1.007892       -99.15598
1.672                   1.003857       -100.4577
1.676                  0.9988358       -101.6543
1.68                   0.9936919       -102.7323
1.684                  0.9892972       -103.6994
1.688                  0.9863862        -104.583
1.692                  0.9854278       -105.4262
1.696                  0.9865448       -106.2794
1.7                    0.9894996       -107.1911
1.704                  0.9937468       -108.1985
1.708                  0.9985407       -109.3217
1.712                   1.003071       -110.5613
1.716                   1.006599       -111.8997
1.72                    1.008575        -113.305
1.724                   1.008715       -114.7369
1.728                    1.00704       -116.1531
1.732                   1.003861        -117.515
1.736                  0.9997275       -118.7939
1.74                   0.9953423       -119.9754
1.744                   0.991441       -121.0621
1.748                  0.9886719       -122.0735
1.752                  0.9874844        -123.043
1.756                  0.9880519        -124.012
1.76                   0.9902453       -125.0221
1.764                  0.9936631       -126.1072
1.768                  0.9977091       -127.2884
1.772                     1.0017       -128.5704
1.776                   1.004981       -129.9422
1.78                    1.007032       -131.3794
1.784                   1.007545        -132.849
1.788                   1.006463       -134.3144
1.792                    1.00399       -135.7408
1.796                   1.000548       -137.1006
1.8                    0.9967142       -138.3775
1.804                  0.9931265       -139.5697
1.808                  0.9903774       -140.6897
1.812                   0.988915       -141.7635
1.816                  0.9889658       -142.8253
1.82                    0.990498       -143.9115
1.824                  0.9932318       -145.0544
1.828                  0.9966917       -146.2763
1.832                   1.000294       -147.5861
1.836                   1.003446       -148.9783
1.84                    1.005642       -150.4353
1.844                   1.006541       -151.9298
1.848                   1.006015       -153.4299
1.852                   1.004166       -154.9036
1.856                   1.001309       -156.3236
1.86                   0.9979173       -157.6715
1.864                  0.9945495        -158.941
1.868                  0.9917589       -160.1387
1.872                  0.9900007       -161.2839
1.876                  0.9895557       -162.4049
1.88                   0.9904815       -163.5342
1.884                  0.9926068       -164.7027
1.888                  0.9955629       -165.9344
1.892                  0.9988509       -167.2419
1.896                   1.001927       -168.6254
1.9                     1.004293       -170.0729
1.904                   1.005574       -171.5625
1.908                   1.005572       -173.0663
1.912                   1.004298       -174.5546
1.916                   1.001966            -176
1.92                   0.9989587        -177.382
1.924                  0.9957667       -178.6901
1.928                   0.992911       -179.9256
1.932                  0.9908579        178.8984
1.936                  0.9899391        177.7587
1.94                   0.9902965        176.6261
1.944                  0.9918586         175.471
1.948                  0.9943541        174.2677
1.952                  0.9973611        172.9998
1.956                    1.00038         171.662
1.96                    1.002917        170.2608
1.964                   1.004562        168.8131
1.968                   1.005054        167.3432
1.972                   1.004315        165.8788
1.976                   1.002468        164.4474
1.98                   0.9998101        163.0714
1.984                   0.996771        161.7654
1.988                  0.9938438        160.5331
1.992                  0.9915049        159.3666
1.996                  0.9901353        158.2478
2                      0.9899558        157.1506
2.004                  0.9909882        156.0461
2.008                  0.9930528        154.9073
2.012                  0.9958001         153.714
2.016                  0.9987713         152.456
2.02                    1.001475        151.1347
2.024                   1.003469         149.762
2.028                   1.004426        148.3588
2.032                    1.00419        146.9511
2.036                   1.002791        145.5664
2.04                     1.00045        144.2294
2.044                  0.9975392        142.9582
2.048                  0.9945256        141.7614
2.052                  0.9918982        140.6362
2.056                  0.9900866        139.5689
2.06                   0.9893878        138.5365
2.064                   0.989915        137.5107
2.068                  0.9915757        136.4628
2.072                  0.9940898        135.3692
2.076                   0.997035        134.2146
2.08                   0.9999203         132.995
2.084                   1.002266        131.7181
2.088                   1.003681        130.4012
2.092                   1.003924        129.0689
2.096                   1.002941         127.749
2.1                     1.000873        126.4687
2.104                  0.9980414        125.2499
2.108                  0.9948926         124.106
2.112                  0.9919336        123.0395
2.116                   0.989648        122.0408
2.12                   0.9884144        121.0898
2.124                  0.9884396        120.1583
2.128                  0.9897203        119.2159
2.132                  0.9920421        118.2345
2.136                  0.9950147        117.1937
2.14                   0.9981382        116.0839
2.144                   1.000886        114.9079
2.148                   1.002791        113.6802
2.152                   1.003518        112.4243
2.156                   1.002922        111.1689
2.16                    1.001065        109.9444
2.164                  0.9982191        108.7773
2.168                  0.9948208        107.6867
2.172                  0.9914088        106.6805
2.176                  0.9885378        105.7537
2.18                   0.9866853        104.8885
2.184                  0.9861671        104.0565
2.188                  0.9870781        103.2239
2.192                  0.9892713        102.3573
2.196                  0.9923789        101.4293
2.2                    0.9958741        100.4241
2.204                  0.9991583        99.33911
2.208                    1.00166         98.1858
2.212                   1.002927        96.98732
2.216                   1.002699        95.77501
2.22                    1.000953        94.58375
2.224                  0.9979123        93.44672
2.228                  0.9940196        92.39038
2.232                  0.9898745        91.42969
2.236                  0.9861412        90.56481
2.24                   0.9834396        89.78005
2.244                  0.9822344        89.04538
2.248                  0.9827468         88.3212
2.252                  0.9849057        87.56523
2.256                  0.9883512        86.74028
2.26                   0.9924921        85.82098
2.264                  0.9966034        84.79812
2.268                  0.9999454        83.67994
2.272                   1.001884        82.49058
2.276                   1.001996        81.26639
2.28                    1.000139        80.05056
2.284                  0.9964839        78.88707
2.288                  0.9915078        77.81403
2.292                  0.9859308        76.85723
2.296                  0.9806145        76.02452
2.3                    0.9764247        75.30241
2.304                  0.9740775        74.65611
2.308                   0.973998        74.03423
2.312                  0.9762237        73.37737
2.316                  0.9803768        72.62926
2.32                   0.9857141        71.74737
2.324                  0.9912467        70.71047
2.328                  0.9958991        69.52205
2.332                  0.9986824         68.2092
2.336                  0.9988526        66.81852
2.34                   0.9960342         65.4099
2.344                  0.9903001        64.04871
2.348                   0.982193        62.79698
2.352                  0.9726849        61.70345