! TOUCHSTONE file generated by CST MICROWAVE STUDIO
! Date and time: Tue Jun  7 20:03:49 2022
! Project name: AppElm_antenne_patch_FR4.cst
! Parameters = {L=54; W=58.5; e=0.035; h=1.6; lambda=0.190476; ls=120; w0=1.6; w1=0.533333; ws=120; y0=20; y1=23.8095}
! Header version: 2018
! Port assignment regex: !\s*Touchstone port\s*([0-9]+)\s*=\s*(CST MWS port|CST DS port)\s*([0-9]+|Zmin|Zmax)\s*\(\"(.*)\"\)(\s*mode\s*([0-9]+))?.*
! Touchstone port assignment:
! Touchstone port 1 = CST MWS port 1 ("")
# GHz S MA R 50
0                      0.9775774              -0
0.004                  0.9789635       -11.57497
0.008                  0.9829163        -23.0121
0.012                  0.9888561       -34.18373
0.016                  0.9959296       -44.98001
0.02                     1.00315       -55.31274
0.024                   1.009547       -65.11536
0.028                   1.014306       -74.34055
0.032                   1.016867       -82.95695
0.036                   1.016993        -90.9463
0.04                    1.014787       -98.30196
0.044                   1.010671       -105.0289
0.048                   1.005322       -111.1452
0.052                  0.9995738       -116.6832
0.056                  0.9942945       -121.6916
0.06                    0.990254        -126.234
0.064                  0.9880045       -130.3861
0.068                  0.9877953        -134.229
0.072                  0.9895396       -137.8412
0.076                  0.9928431       -141.2906
0.08                   0.9970846        -144.628
0.084                    1.00153        -147.884
0.088                   1.005456       -151.0694
0.092                   1.008265       -154.1782
0.096                   1.009567       -157.1924
0.1                     1.009231       -160.0873
0.104                   1.007389       -162.8382
0.108                   1.004411        -165.425
0.112                   1.000835       -167.8371
0.116                  0.9972809       -170.0766
0.12                    0.994347       -172.1593
0.124                  0.9925078       -174.1133
0.128                  0.9920365       -175.9755
0.132                  0.9929624       -177.7852
0.136                   0.995073       -179.5786
0.14                   0.9979598        178.6172
0.144                   1.001098        176.7877
0.148                    1.00394        174.9319
0.152                   1.006012        173.0613
0.156                   1.006983        171.1967
0.16                     1.00672        169.3638
0.164                   1.005302        167.5889
0.168                      1.003        165.8942
0.172                   1.000229        164.2936
0.176                  0.9974792        162.7906
0.18                   0.9952286        161.3769
0.184                  0.9938606        160.0336
0.188                  0.9935974        158.7343
0.192                  0.9944622        157.4499
0.196                  0.9962786        156.1534
0.2                    0.9987075        154.8251
0.204                    1.00131        153.4552
0.208                    1.00363        152.0451
0.212                   1.005268        150.6067
0.216                   1.005954        149.1594
0.22                    1.005584         147.727
0.224                   1.004239        146.3332
0.228                   1.002165         144.998
0.232                  0.9997346        143.7339
0.236                  0.9973773        142.5439
0.24                   0.9955086        141.4204
0.244                  0.9944548        140.3468
0.248                  0.9943943        139.2999
0.252                  0.9953275        138.2543
0.256                  0.9970776        137.1873
0.26                   0.9993249        136.0825
0.264                   1.001668        134.9328
0.268                   1.003693        133.7413
0.272                    1.00505        132.5201
0.276                   1.005508        131.2883
0.28                    1.004995        130.0683
0.284                   1.003606        128.8822
0.288                   1.001591         127.748
0.292                  0.9993061        126.6766
0.296                   0.997156        125.6695
0.3                    0.9955215        124.7186
0.304                  0.9946911        123.8074
0.308                  0.9948085        122.9136
0.312                  0.9958481        122.0137
0.316                  0.9976189         121.087
0.32                   0.9998013        120.1193
0.324                   1.002006        119.1057
0.328                   1.003844        118.0505
0.332                   1.004994        116.9669
0.336                   1.005256        115.8739
0.34                    1.004588        114.7936
0.344                   1.003108        113.7471
0.348                   1.001077        112.7508
0.352                  0.9988534         111.814
0.356                   0.996832        110.9367
0.36                   0.9953724        110.1097
0.364                  0.9947347        109.3155
0.368                  0.9950326        108.5322
0.372                  0.9962112        107.7368
0.376                  0.9980581        106.9101
0.38                    1.000243        106.0396
0.384                   1.002376        105.1221
0.388                    1.00408        104.1636
0.392                   1.005057        103.1785
0.396                   1.005134        102.1864
0.4                     1.004298        101.2095
0.404                   1.002695         100.268
0.408                   1.000605        99.37738
0.412                  0.9983994        98.54532
0.416                  0.9964688        97.77014
0.42                   0.9951599        97.04087
0.424                  0.9947087        96.33909
0.428                   0.995198        95.64219
0.432                   0.996541        94.92763
0.436                  0.9984979        94.17709
0.44                    1.000719        93.37976
0.444                    1.00281        92.53421
0.448                   1.004399        91.64836
0.452                   1.005205        90.73795
0.456                   1.005086        89.82377
0.46                    1.004057        88.92809
0.464                   1.002299         88.0709
0.468                   1.000118        87.26654
0.472                  0.9979003        86.52099
0.476                  0.9960416        85.83065
0.48                    0.994877        85.18266
0.484                  0.9946189        84.55704
0.488                  0.9953173        83.93036
0.492                  0.9968491        83.28012
0.496                  0.9989412        82.58891
0.5                      1.00122         81.8476
0.504                    1.00328        81.05673
0.508                   1.004754        80.22633
0.512                   1.005379        79.37394
0.516                   1.005041        78.52156
0.52                    1.003795        77.69196
0.524                   1.001854        76.90484
0.528                  0.9995599        76.17337
0.532                  0.9973182        75.50173
0.536                  0.9955313        74.88404
0.54                   0.9945238         74.3052
0.544                  0.9944821         73.7434
0.548                  0.9954191        73.17413
0.552                  0.9971701        72.57485
0.556                  0.9994231        71.92914
0.56                    1.001776        71.22965
0.564                   1.003809        70.47923
0.568                    1.00516        69.69029
0.572                   1.005584        68.88243
0.576                   1.005001        68.07914
0.58                    1.003507        67.30382
0.584                    1.00136        66.57583
0.588                  0.9989358        65.90704
0.592                  0.9966668        65.29951
0.596                  0.9949623        64.74479
0.6                    0.9941347        64.22515
0.604                  0.9943405        63.71666
0.608                  0.9955498        63.19357
0.612                  0.9975499        62.63332
0.616                  0.9999843        62.02063
0.62                    1.002418        61.35024
0.624                   1.004417        60.62764
0.628                   1.005621        59.86797
0.632                   1.005811        59.09319
0.636                   1.004945         58.3285
0.64                    1.003167        57.59794
0.644                   1.000783        56.92047
0.648                  0.9982133        56.30639
0.652                  0.9959169        55.75535
0.656                  0.9943109        55.25585
0.66                   0.9936931        54.78714
0.664                  0.9941844        54.32284
0.668                  0.9957044        53.83592
0.672                  0.9979851        53.30385
0.676                    1.00062        52.71274
0.68                    1.003137        52.05979
0.684                   1.005085        51.35355
0.688                   1.006112        50.61227
0.692                   1.006027        49.86061
0.696                   1.004833         49.1256
0.7                     1.002729        48.43203
0.704                   1.000079        47.79827
0.708                  0.9973513        47.23276
0.712                  0.9950358        46.73219
0.716                  0.9935565        46.28156
0.72                   0.9931914        45.85664
0.724                  0.9940186        45.42829
0.728                  0.9958987        44.96809
0.732                  0.9984995        44.45368
0.736                   1.001357        43.87294
0.74                    1.003958          43.226
0.744                   1.005835        42.52495
0.748                   1.006646        41.79161
0.752                   1.006234        41.05373
0.756                   1.004657        40.34036
0.76                    1.002179        39.67705
0.764                  0.9992298        39.08136
0.768                  0.9963324        38.55948
0.772                  0.9940107        38.10458
0.776                  0.9926943        37.69749
0.78                   0.9926359        37.30991
0.784                  0.9938614        36.90965
0.788                  0.9961608        36.46679
0.792                  0.9991272        35.95938
0.796                    1.00223        35.37751
0.8                     1.004912         34.7248
0.804                   1.006689        34.01753
0.808                   1.007231        33.28165
0.812                   1.006425         32.5484
0.816                   1.004394        31.84917
0.82                    1.001479        31.21024
0.824                  0.9981868        30.64814
0.828                  0.9951037        30.16624
0.832                  0.9927918        29.75345
0.836                  0.9916842        29.38562
0.84                   0.9920014        29.02971
0.844                  0.9937042        28.64996
0.848                  0.9964988        28.21488
0.852                  0.9998893        27.70323
0.856                   1.003269        27.10784
0.86                    1.006028        26.43658
0.864                   1.007665         25.7107
0.868                    1.00787        24.96101
0.872                   1.006583        24.22285
0.876                   1.004003        23.53028
0.88                    1.000567        22.91041
0.884                  0.9968722        22.37839
0.888                  0.9935807        21.93411
0.892                  0.9912985        21.56122
0.896                  0.9904609        21.22951
0.9                    0.9912457        20.90017
0.904                  0.9935338        20.53328
0.908                  0.9969279        20.09561
0.912                   1.000825        19.56696
0.916                   1.004525        18.94365
0.92                    1.007361        18.23876
0.924                   1.008809        17.47954
0.928                   1.008586        16.70272
0.932                   1.006697        15.94857
0.936                   1.003438         15.2544
0.94                    0.999361        14.64829
0.944                  0.9951774        14.14369
0.948                   0.991642        13.73605
0.952                  0.9894144        13.40242
0.956                  0.9889309         13.1049
0.96                   0.9903143        12.79747
0.964                  0.9933438        12.43506
0.968                  0.9974914        11.98242
0.972                   1.002019        11.42078
0.976                   1.006114        10.75093
0.98                    1.009032        9.992497
0.984                   1.010227        9.180271
0.988                   1.009446        8.358377
0.992                   1.006776        7.573359
0.996                   1.002641        6.866785
1                      0.9977354        6.268104
1.004                  0.9929204        5.788683
1.008                  0.9890725        5.418257
1.012                  0.9869221        5.125212
1.016                  0.9869077         4.86146
1.02                   0.9890812        4.571444
1.024                  0.9930871        4.203277
1.028                  0.9982258        3.719084
1.032                   1.003582        3.102013
1.036                   1.008191        2.358679
1.04                    1.011206        1.517265
1.044                   1.012048       0.6223993
1.048                   1.010501      -0.2719511
1.052                    1.00676       -1.110666
1.056                    1.00141       -1.846087
1.06                   0.9953487       -2.446389
1.064                  0.9896408       -2.902605
1.068                  0.9853371       -3.232585
1.072                  0.9832742       -3.480023
1.076                  0.9839009       -3.707493
1.08                   0.9871741       -3.984326
1.084                  0.9925535        -4.37235
1.088                  0.9990979       -4.913451
1.092                   1.005639       -5.622111
1.096                   1.010993        -6.48378
1.1                      1.01416       -7.458583
1.104                   1.014499       -8.488167
1.108                   1.011835       -9.504417
1.112                   1.006503       -10.43933
1.116                  0.9993208        -11.2353
1.12                   0.9914778       -11.85556
1.124                   0.984355       -12.29343
1.128                  0.9792835       -12.57726
1.132                  0.9772851       -12.76919
1.136                  0.9788473       -12.95479
1.14                   0.9837992       -13.22599
1.144                  0.9913234       -13.66139
1.148                   1.000104       -14.31037
1.152                   1.008571       -15.18485
1.156                   1.015175       -16.25924
1.16                    1.018649       -17.47644
1.164                   1.018214       -18.75717
1.168                   1.013714       -20.01075
1.172                   1.005672       -21.14686
1.176                  0.9952529        -22.0886
1.18                   0.9841325       -22.78677
1.184                  0.9742532       -23.23386
1.188                  0.9674897        -23.4735
1.192                  0.9652683       -23.59981
1.196                  0.9682288       -23.74237
1.2                    0.9760367       -24.03883
1.204                  0.9874099       -24.60401
1.208                   1.000354       -25.50643
1.212                    1.01253       -26.75866
1.216                   1.021649       -28.32026
1.22                    1.025832       -30.10803
1.224                   1.023888       -32.00863
1.228                    1.01551       -33.89098
1.232                   1.001384       -35.61919
1.236                  0.9832014       -37.06828
1.24                   0.9635444       -38.14613
1.244                  0.9456042       -38.82174
1.248                  0.9326822       -39.15428
1.252                  0.9275079       -39.30803
1.256                  0.9315173       -39.53508
1.26                   0.9443566       -40.12156
1.264                  0.9638262       -41.31913
1.268                  0.9862732       -43.29548
1.272                   1.007233       -46.12221
1.276                   1.022074       -49.79295
1.28                    1.026495       -54.25284
1.284                   1.016859       -59.42585
1.288                  0.9903798       -65.23434
1.292                  0.9452182       -71.61218
1.296                  0.8805139       -78.51511
1.3                    0.7963806       -85.93349
1.304                  0.6938757       -93.91749
1.308                  0.5749722       -102.6398
1.312                  0.4425981        -112.586
1.316                  0.3010788        -125.308
1.32                   0.1597264       -148.1273
1.324                 0.08472705        131.9563
1.328                  0.1937504        72.79414
1.332                  0.3368194        54.14754
1.336                   0.476565        42.38469
1.34                    0.605877        32.80132
1.344                  0.7208832        24.26348
1.348                  0.8189087        16.39678
1.352                  0.8982076        9.068907
1.356                  0.9579515        2.248134
1.36                   0.9982617       -4.045787
1.364                   1.020234       -9.762164
1.368                    1.02594       -14.83081
1.372                   1.018375       -19.17246
1.376                   1.001357       -22.71307
1.38                   0.9793031       -25.40532
1.384                  0.9568688       -27.25725
1.388                   0.938408       -28.36134
1.392                  0.9273112       -28.90761
1.396                  0.9253927       -29.16311
1.4                     0.932582       -29.41505
1.404                  0.9470876       -29.90181
1.408                  0.9659696       -30.76585
1.412                  0.9858736       -32.04471
1.416                   1.003683       -33.69107
1.42                    1.016966       -35.60288
1.424                    1.02422       -37.65061
1.428                   1.024949       -39.69744
1.432                   1.019635       -41.61397
1.436                   1.009615       -43.29051
1.44                     0.99687       -44.64947
1.444                  0.9837399       -45.65777
1.448                  0.9725573       -46.33657
1.452                  0.9652506       -46.76293
1.456                  0.9629904       -47.05812
1.46                   0.9659779       -47.36256
1.464                  0.9734477       -47.80438
1.468                  0.9838807       -48.47314
1.472                  0.9953535       -49.40661
1.476                   1.005917       -50.59181
1.48                     1.01392        -51.9754
1.484                    1.01824       -53.47791
1.488                     1.0184       -55.00775
1.492                   1.014601       -56.47384
1.496                   1.007661       -57.79704
1.5                    0.9988751       -58.92074
1.504                  0.9898153       -59.81995
1.508                  0.9820696       -60.50729
1.512                  0.9769676       -61.03313
1.516                  0.9753393       -61.47731
1.52                   0.9773658       -61.93335
1.524                  0.9825654        -62.4887
1.528                  0.9899148       -63.20743
1.532                  0.9980715       -64.11983
1.536                   1.005631       -65.22074
1.54                    1.011368       -66.47464
1.544                   1.014418       -67.82444
1.548                   1.014392        -69.2019
1.552                   1.011408       -70.53759
1.556                   1.006062        -71.7706
1.56                   0.9993242       -72.85719
1.564                   0.992379       -73.77805
1.568                  0.9864325       -74.54255
1.572                  0.9825013        -75.1884
1.576                  0.9812292        -75.7754
1.58                   0.9827738       -76.37395
1.584                  0.9867875       -77.05083
1.588                  0.9925013       -77.85621
1.592                  0.9988831       -78.81545
1.596                   1.004833       -79.92664
1.6                     1.009371       -81.16353
1.604                   1.011791       -82.48178
1.608                   1.011759         -83.827
1.612                   1.009348       -85.14296
1.616                   1.005021       -86.37991
1.62                   0.9995453       -87.50178
1.624                  0.9938755       -88.49224
1.628                  0.9889876       -89.35809
1.632                  0.9857138       -90.12895
1.636                  0.9845936       -90.85234
1.64                   0.9857787       -91.58481
1.644                  0.9890124       -92.38089
1.648                  0.9936878       -93.28259
1.652                    0.99897       -94.31253
1.656                   1.003951       -95.47115
1.66                    1.007806       -96.73844
1.664                   1.009924       -98.07859
1.668                   1.009997       -99.44648
1.672                   1.008057       -100.7947
1.676                   1.004468       -102.0805
1.68                   0.9998586       -103.2724
1.684                  0.9950224       -104.3551
1.688                  0.9907863       -105.3329
1.692                  0.9878682       -106.2292
1.696                  0.9867506       -107.0828
1.7                    0.9875969        -107.941
1.704                   0.990225       -108.8503
1.708                  0.9941488       -109.8479
1.712                  0.9986737       -110.9551
1.716                   1.003024       -112.1748
1.72                    1.006476       -113.4918
1.724                   1.008476       -114.8769
1.728                   1.008721       -116.2916
1.732                   1.007202       -117.6948
1.736                   1.004196       -119.0482
1.74                    1.000224       -120.3231
1.744                   0.995964        -121.504
1.748                  0.9921367       -122.5923
1.752                  0.9893876       -123.6062
1.756                  0.9881725       -124.5778
1.76                   0.9886777       -125.5476
1.764                  0.9907903       -126.5567
1.768                  0.9941226       -127.6391
1.772                  0.9980886       -128.8163
1.776                    1.00201       -130.0935
1.78                    1.005232       -131.4599
1.784                   1.007232       -132.8915
1.788                     1.0077       -134.3552
1.792                   1.006578       -135.8143
1.796                    1.00407       -137.2339
1.8                     1.000607       -138.5862
1.804                  0.9967728       -139.8551
1.808                  0.9932135       -141.0389
1.812                  0.9905263       -142.1513
1.816                  0.9891575       -143.2187
1.82                   0.9893252       -144.2764
1.824                  0.9909807       -145.3615
1.828                  0.9938227       -146.5063
1.832                  0.9973529       -147.7328
1.836                   1.000968       -149.0486
1.84                    1.004063       -150.4473
1.844                   1.006132       -151.9091
1.848                   1.006845       -153.4054
1.852                     1.0061       -154.9028
1.856                    1.00403       -156.3688
1.86                    1.000989        -157.776
1.864                  0.9974852       -159.1071
1.868                  0.9941063       -160.3575
1.872                  0.9914173       -161.5364
1.876                  0.9898664       -162.6659
1.88                   0.9897052       -163.7768
1.884                  0.9909466       -164.9033
1.888                  0.9933639       -166.0767
1.892                  0.9965339       -167.3198
1.896                  0.9999132        -168.643
1.9                     1.002934       -170.0432
1.904                   1.005096       -171.5048
1.908                   1.006048       -173.0029
1.912                   1.005642       -174.5069
1.916                   1.003952       -175.9857
1.92                    1.001261       -177.4121
1.924                  0.9980185       -178.7674
1.928                   0.994764        179.9557
1.932                  0.9920419        178.7517
1.936                  0.9903064        177.6024
1.94                   0.9898437        176.4805
1.944                  0.9907214        175.3537
1.948                  0.9927771        174.1917
1.952                    0.99565        172.9705
1.956                   0.998845        171.6772
1.96                    1.001821        170.3116
1.964                   1.004079        168.8859
1.968                   1.005246        167.4221
1.972                   1.005132        165.9484
1.976                   1.003758        164.4949
1.98                     1.00135        163.0888
1.984                  0.9983092        161.7503
1.988                  0.9951399         160.489
1.992                  0.9923722        159.3024
1.996                  0.9904705        158.1754
2                      0.9897517        157.0834
2.004                  0.9903302        155.9957
2.008                  0.9920967        154.8821
2.012                  0.9947395        153.7175
2.016                  0.9977999        152.4868
2.02                    1.000754        151.1871
2.024                     1.0031        149.8278
2.028                   1.004443        148.4284
2.032                   1.004555        147.0157
2.036                   1.003416         145.619
2.04                    1.001208         144.266
2.044                  0.9982954         142.978
2.048                  0.9951603        141.7667
2.052                  0.9923274         140.632
2.056                  0.9902737         139.561
2.06                   0.9893447        138.5309
2.064                  0.9896931        137.5119
2.068                  0.9912506        136.4734
2.072                  0.9937392        135.3892
2.076                   0.996723        134.2422
2.08                   0.9996837        133.0273
2.084                    1.00211        131.7517
2.088                   1.003585        130.4336
2.092                    1.00385        129.0988
2.096                   1.002848        127.7766
2.1                     1.000735        126.4954
2.104                  0.9978518         125.278
2.108                  0.9946747        124.1378
2.112                  0.9917347        123.0762
2.116                  0.9895277        122.0819
2.12                   0.9884287        121.1328
2.124                  0.9886212         120.199
2.128                  0.9900649         119.249
2.132                  0.9924995        118.2549
2.136                  0.9954932        117.1978
2.14                   0.9985183        116.0708
2.144                   1.001042        114.8798
2.148                   1.002618        113.6426
2.152                   1.002958         112.385
2.156                   1.001981        111.1374
2.16                   0.9998246        109.9296
2.164                  0.9968301        108.7861
2.168                  0.9934847         107.722
2.172                  0.9903449          106.74
2.176                  0.9879406        105.8294
2.18                   0.9866822        104.9674
2.184                  0.9867825        104.1227
2.188                  0.9882173        103.2615
2.192                  0.9907248        102.3535
2.196                   0.993853        101.3775
2.2                    0.9970388        100.3251
2.204                  0.9997059        99.20184
2.208                   1.001362        98.02596
2.212                   1.001683        96.82518
2.216                   1.000565         95.6323
2.22                    0.998145        94.48002
2.224                   0.994786         93.3958
2.228                  0.9910185        92.39701
2.232                  0.9874584        91.48744
2.236                  0.9847014        90.65588
2.24                   0.9832162        89.87708
2.244                  0.9832549        89.11592
2.248                   0.984801         88.3337
2.252                   0.987566        87.49525
2.256                  0.9910381        86.57566
2.26                   0.9945705        85.56455
2.264                  0.9974931        84.46765
2.268                  0.9992261         83.3055
2.272                  0.9993778        82.11011
2.276                  0.9978123        80.91991
2.28                   0.9946788        79.77381
2.284                  0.9903972        78.70521
2.288                  0.9856013        77.73598
2.292                  0.9810411        76.87185
2.296                  0.9774573        76.09968
2.3                    0.9754466        75.38833
2.304                  0.9753428        74.69304
2.308                  0.9771406         73.9633
2.312                  0.9804805        73.15232
2.316                  0.9847025         72.2258
2.32                    0.988953        71.16818
2.324                  0.9923272        69.98499
2.328                  0.9940178        68.70174
2.332                  0.9934486        67.35996
2.336                  0.9903747        66.01138
2.34                   0.9849397        64.71059
2.344                  0.9776798          63.507
2.348                  0.9694693        62.43608
2.352                  0.9614044        61.51081