! TOUCHSTONE file generated by CST MICROWAVE STUDIO
! Date and time: Tue Jun  7 20:03:46 2022
! Project name: AppElm_antenne_patch_FR4.cst
! Parameters = {L=47.25; W=58.5; e=0.035; h=1.6; lambda=0.190476; ls=120; w0=1.6; w1=0.533333; ws=120; y0=20; y1=23.8095}
! Header version: 2018
! Port assignment regex: !\s*Touchstone port\s*([0-9]+)\s*=\s*(CST MWS port|CST DS port)\s*([0-9]+|Zmin|Zmax)\s*\(\"(.*)\"\)(\s*mode\s*([0-9]+))?.*
! Touchstone port assignment:
! Touchstone port 1 = CST MWS port 1 ("")
# GHz S MA R 50
0                      0.9891334              -0
0.004                  0.9898531       -10.38549
0.008                  0.9919035       -20.67021
0.012                  0.9949766       -30.75879
0.016                  0.9986162       -40.56572
0.02                    1.002292       -50.01819
0.024                   1.005482       -59.05737
0.028                    1.00775       -67.63828
0.032                   1.008804       -75.72905
0.036                   1.008539       -83.31007
0.04                    1.007045       -90.37341
0.044                   1.004589       -96.92268
0.048                   1.001575       -102.9731
0.052                  0.9984804       -108.5516
0.056                  0.9957812        -113.696
0.06                   0.9938789       -118.4533
0.064                   0.993036       -122.8763
0.068                   0.993337       -127.0199
0.072                  0.9946797       -130.9357
0.076                  0.9967976       -134.6681
0.08                   0.9993111       -138.2508
0.084                   1.001793       -141.7054
0.088                   1.003843       -145.0419
0.092                   1.005146       -148.2605
0.096                   1.005522       -151.3545
0.1                     1.004948       -154.3139
0.104                   1.003557       -157.1289
0.108                   1.001612       -159.7937
0.112                  0.9994611       -162.3085
0.116                  0.9974759       -164.6815
0.12                   0.9959915       -166.9285
0.124                  0.9952486       -169.0715
0.128                   0.995354       -171.1363
0.132                  0.9962656       -173.1484
0.136                  0.9978032       -175.1299
0.14                   0.9996837       -177.0963
0.144                   1.001574       -179.0552
0.148                   1.003147        178.9946
0.152                   1.004142        177.0612
0.156                     1.0044         175.158
0.16                    1.003894        173.3004
0.164                   1.002726        171.5031
0.168                    1.00111        169.7772
0.172                   0.999335        168.1277
0.176                  0.9977128        166.5526
0.18                    0.996525        165.0429
0.184                  0.9959731        163.5834
0.188                  0.9961449        162.1557
0.192                  0.9969984         160.741
0.196                  0.9983733        159.3233
0.2                     1.000019         157.892
0.204                   1.001644        156.4433
0.208                   1.002963        154.9807
0.212                   1.003749        153.5137
0.216                   1.003871        152.0563
0.22                    1.003316        150.6238
0.224                   1.002184        149.2307
0.228                   1.000679        147.8879
0.232                  0.9990677        146.6006
0.236                   0.997633        145.3672
0.24                   0.9966268        144.1797
0.244                  0.9962238        143.0247
0.248                   0.996491        141.8858
0.252                  0.9973756        140.7466
0.256                  0.9987162        139.5934
0.26                    1.000272        138.4177
0.264                   1.001768        137.2174
0.268                   1.002941        135.9972
0.272                   1.003586        134.7671
0.276                   1.003594        133.5412
0.28                    1.002966        132.3346
0.284                   1.001814        131.1611
0.288                   1.000342        130.0309
0.292                  0.9988093        128.9483
0.296                  0.9974874        127.9114
0.3                    0.9966094        126.9119
0.304                  0.9963307        125.9366
0.308                  0.9966989        124.9697
0.312                   0.997647        123.9958
0.316                  0.9990045        123.0025
0.32                     1.00053        121.9826
0.324                   1.001953        120.9353
0.328                   1.003024        119.8661
0.332                   1.003554         118.786
0.336                   1.003453        117.7089
0.34                    1.002738          116.65
0.344                   1.001534        115.6227
0.348                   1.000056         114.636
0.352                  0.9985622        113.6938
0.356                  0.9973188         112.793
0.36                   0.9965471        111.9246
0.364                  0.9963847        111.0752
0.368                  0.9968609         110.229
0.372                  0.9978907        109.3711
0.376                   0.999291          108.49
0.38                    1.000813        107.5796
0.384                   1.002187        106.6402
0.388                    1.00317        105.6785
0.392                    1.00359         104.706
0.396                   1.003372        103.7374
0.4                     1.002554        102.7877
0.404                   1.001278        101.8697
0.408                  0.9997699        100.9919
0.412                  0.9982955         100.157
0.416                  0.9971176        99.36083
0.42                   0.9964469        98.59353
0.424                  0.9964046        97.84089
0.428                  0.9969996        97.08705
0.432                  0.9981263        96.31734
0.436                  0.9995845        95.52105
0.44                    1.001115        94.69318
0.444                   1.002447        93.83531
0.448                   1.003343        92.95522
0.452                   1.003644        92.06552
0.456                   1.003297        91.18129
0.46                    1.002359        90.31762
0.464                   1.000994          89.487
0.468                  0.9994429        88.69706
0.472                    0.99798        87.94919
0.476                  0.9968667        87.23807
0.48                   0.9963034        86.55259
0.484                  0.9963928        85.87773
0.488                  0.9971209        85.19728
0.492                  0.9983589        84.49687
0.496                  0.9998865        83.76654
0.5                     1.001432        83.00252
0.504                   1.002719        82.20778
0.508                    1.00352        81.39148
0.512                    1.00369        80.56723
0.516                   1.003197        79.75079
0.52                    1.002124        78.95735
0.524                   1.000659         78.1989
0.528                  0.9990595        77.48211
0.532                  0.9976099          76.807
0.536                  0.9965702        76.16678
0.54                   0.9961291        75.54894
0.544                  0.9963684        74.93751
0.548                  0.9972477        74.31591
0.552                  0.9986116        73.67007
0.556                   1.000217        72.99095
0.56                    1.001777        72.27614
0.564                   1.003015        71.53017
0.568                   1.003708        70.76373
0.572                    1.00373         69.9916
0.576                   1.003075        69.23026
0.58                    1.001853        68.49495
0.584                   1.000279        67.79708
0.588                  0.9986307        67.14216
0.592                   0.997202        66.52865
0.596                  0.9962514        65.94803
0.6                    0.9959522        65.38631
0.604                  0.9963624        64.82643
0.608                  0.9974114        64.25146
0.612                  0.9989136        63.64773
0.616                   1.000601        63.00727
0.62                    1.002173        62.32927
0.624                   1.003348        61.62006
0.628                   1.003914        60.89193
0.632                   1.003768        60.16101
0.636                    1.00293        59.44445
0.64                    1.001545        58.75753
0.644                  0.9998544         58.1109
0.648                  0.9981591         57.5087
0.652                  0.9967625        56.94759
0.656                  0.9959184        56.41715
0.66                   0.9957832        55.90168
0.664                  0.9963855        55.38303
0.668                  0.9976214        54.84395
0.672                  0.9992711        54.27133
0.676                   1.001041        53.65852
0.68                    1.002613        53.00652
0.684                   1.003706        52.32363
0.688                   1.004123          51.624
0.692                   1.003782         50.9251
0.696                    1.00274        50.24481
0.7                     1.001175        49.59827
0.704                  0.9993621        48.99523
0.708                   0.997624        48.43822
0.712                  0.9962734         47.9218
0.716                  0.9955576        47.43343
0.72                   0.9956105        46.95558
0.724                  0.9964281        46.46897
0.728                  0.9978676        45.95614
0.732                  0.9996729        45.40472
0.736                   1.001521        44.80963
0.74                    1.003081        44.17394
0.744                   1.004071        43.50816
0.748                   1.004309        42.82843
0.752                   1.003747        42.15369
0.756                   1.002477        41.50244
0.76                    1.000718        40.88959
0.764                  0.9987788        40.32378
0.768                  0.9970062        39.80557
0.772                  0.9957207        39.32722
0.776                  0.9951594        38.87376
0.78                   0.9954297        38.42574
0.784                  0.9964893        37.96271
0.788                  0.9981521        37.46715
0.792                   1.000122        36.92766
0.796                   1.002045        36.34101
0.8                     1.003577        35.71261
0.804                   1.004439        35.05546
0.808                   1.004471        34.38784
0.812                   1.003658        33.73018
0.816                   1.002136        33.10164
0.82                    1.000168        32.51671
0.824                  0.9981009        31.98259
0.828                  0.9963058        31.49763
0.832                  0.9951092        31.05141
0.836                  0.9947341        30.62633
0.84                   0.9952564        30.20079
0.844                  0.9965893        29.75324
0.848                  0.9984976        29.26624
0.852                   1.000641        28.72962
0.856                   1.002636        28.14232
0.86                    1.004122        27.51242
0.864                   1.004828        26.85568
0.868                   1.004619        26.19271
0.872                   1.003522        25.54554
0.876                   1.001721        24.93387
0.88                   0.9995274        24.37162
0.884                  0.9973308        23.86426
0.888                  0.9955263        23.40758
0.892                  0.9944454        22.98806
0.896                  0.9942926        22.58515
0.9                    0.9951059        22.17501
0.904                  0.9967471        21.73494
0.908                  0.9989265        21.24773
0.912                   1.001255         20.7048
0.916                   1.003315         20.1076
0.92                    1.004734        19.46728
0.924                    1.00525        18.80264
0.928                    1.00476        18.13687
0.932                   1.003337        17.49371
0.936                    1.00122        16.89336
0.94                   0.9987787        16.34897
0.944                  0.9964461        15.86395
0.948                  0.9946446        15.43106
0.952                  0.9937083        15.03327
0.956                  0.9938186        14.64669
0.96                   0.9949681        14.24497
0.964                  0.9969596        13.80429
0.968                  0.9994408        13.30787
0.972                   1.001969        12.74901
0.976                   1.004088        12.13213
0.98                    1.005415        11.47189
0.984                   1.005699        10.79054
0.988                   1.004876        10.11416
0.992                   1.003072        9.468358
0.996                   1.000594        8.873867
1                       0.997871        8.342819
1.004                  0.9953899        7.876204
1.008                  0.9936026        7.463193
1.012                  0.9928438        7.082661
1.016                  0.9932668        6.706863
1.02                   0.9948101        6.306631
1.024                  0.9972073        5.856936
1.028                   1.000034        5.341609
1.032                   1.002784        4.756222
1.036                   1.004961        4.108698
1.04                    1.006168        3.417756
1.044                   1.006172        2.709656
1.048                    1.00495        2.013833
1.052                   1.002695        1.358043
1.056                  0.9997892        0.763618
1.06                    0.996738       0.2414963
1.064                  0.9940874      -0.2102532
1.068                  0.9923239       -0.606738
1.072                  0.9917837      -0.9739917
1.076                  0.9925853       -1.344349
1.08                   0.9946025       -1.750317
1.084                  0.9974858       -2.218325
1.088                   1.000724       -2.763761
1.092                   1.003738       -3.388311
1.096                   1.005981       -4.079894
1.1                      1.00704       -4.814946
1.104                     1.0067       -5.562387
1.108                   1.004992       -6.288737
1.112                   1.002187       -6.963586
1.116                  0.9987576       -7.564752
1.12                   0.9953028       -8.082727
1.124                   0.992443       -8.522918
1.128                  0.9907089       -8.905671
1.132                   0.990439       -9.263141
1.136                  0.9917099       -9.633395
1.14                   0.9943169       -10.05314
1.144                  0.9978076       -10.55059
1.148                   1.001564       -11.14027
1.152                   1.004912       -11.82051
1.156                   1.007243       -12.57417
1.16                     1.00812       -13.37168
1.164                    1.00735       -14.17596
1.168                   1.005025       -14.94833
1.172                   1.001513       -15.65476
1.176                  0.9974036       -16.27177
1.18                   0.9934146       -16.79124
1.184                  0.9902664       -17.22295
1.188                   0.988551       -17.59395
1.192                  0.9886152       -17.94434
1.196                  0.9904863       -18.31986
1.2                    0.9938597       -18.76292
1.204                    0.99815       -19.30439
1.208                   1.002598       -19.95789
1.212                   1.006403       -20.71769
1.216                    1.00887       -21.56019
1.22                     1.00952       -22.44806
1.224                   1.008181        -23.3362
1.228                   1.005022       -24.17871
1.232                   1.000535       -24.93619
1.236                  0.9954661       -25.58273
1.24                   0.9906978       -26.11147
1.244                  0.9870965       -26.53759
1.248                  0.9853506       -26.89722
1.252                   0.985831       -27.24171
1.256                  0.9885072       -27.62795
1.26                   0.9929422       -28.10701
1.264                  0.9983667       -28.71418
1.268                   1.003819       -29.46252
1.272                   1.008314       -30.34121
1.276                   1.011016       -31.31804
1.28                    1.011374       -32.34489
1.284                   1.009227       -33.36506
1.288                   1.004835       -34.32164
1.292                   0.998861       -35.16628
1.296                  0.9922781       -35.86791
1.3                    0.9862235       -36.42003
1.304                  0.9818017       -36.84473
1.308                  0.9798744        -37.1915
1.312                  0.9808787       -37.52938
1.316                  0.9847206       -37.93373
1.32                   0.9907743       -38.47077
1.324                  0.9979904        -39.1844
1.328                   1.005083       -40.08856
1.332                   1.010757         -41.166
1.336                   1.013922        -42.3722
1.34                    1.013874       -43.64273
1.344                    1.01042        -44.9023
1.348                   1.003927       -46.07485
1.352                  0.9953038       -47.09475
1.356                  0.9858931       -47.91851
1.36                   0.9772815       -48.53592
1.364                  0.9710325       -48.97771
1.368                  0.9683846       -49.31557
1.372                  0.9699735       -49.65178
1.376                  0.9756628        -50.0991
1.38                   0.9845321       -50.75678
1.384                  0.9950325       -51.69044
1.388                   1.005262       -52.92129
1.392                   1.013285       -54.42559
1.396                   1.017444       -56.14112
1.4                     1.016609       -57.97711
1.404                    1.01036       -59.82516
1.408                  0.9990993        -61.5708
1.412                   0.984068       -63.10727
1.416                  0.9672666       -64.35289
1.42                   0.9512374       -65.27271
1.424                  0.9386899       -65.90057
1.428                  0.9319826       -66.35221
1.432                  0.9325556       -66.81748
1.436                  0.9404849       -67.52614
1.44                   0.9543314       -68.69741
1.444                  0.9713375       -70.49588
1.448                  0.9878728       -73.01077
1.452                  0.9999561       -76.26016
1.456                   1.003715       -80.20956
1.46                   0.9957239       -84.79302
1.464                  0.9732179       -89.92989
1.468                  0.9342189        -95.5354
1.472                  0.8775907       -101.5256
1.476                  0.8030485        -107.818
1.48                   0.7111345       -114.3273
1.484                  0.6031655       -120.9535
1.488                  0.4811604         -127.55
1.492                  0.3477622       -133.8121
1.496                  0.2062306       -138.6978
1.5                   0.06201107         -131.65
1.504                 0.09287167        6.909004
1.508                  0.2373902        7.776825
1.512                  0.3772577        2.376107
1.516                  0.5081407       -4.027748
1.52                   0.6269506       -10.68116
1.524                  0.7312018       -17.33365
1.528                   0.819049       -23.85394
1.532                  0.8893643       -30.14742
1.536                  0.9418028       -36.13047
1.54                   0.9768457       -41.72095
1.544                  0.9958179       -46.83513
1.548                   1.000867       -51.38896
1.552                  0.9948951       -55.30412
1.556                  0.9814223       -58.51959
1.56                     0.96435       -61.00955
1.564                  0.9476058       -62.80453
1.568                  0.9346715       -64.00828
1.572                  0.9280711        -64.7979
1.576                  0.9289623       -65.39852
1.58                   0.9370034       -66.03628
1.584                  0.9505628       -66.88991
1.588                  0.9671929       -68.06101
1.592                   0.984191       -69.57079
1.596                  0.9990872       -71.37562
1.6                     1.009985       -73.38931
1.604                   1.015752        -75.5038
1.608                   1.016077       -77.60544
1.612                   1.011448       -79.58772
1.616                   1.003033       -81.36221
1.62                   0.9925026       -82.86897
1.624                  0.9817845       -84.08596
1.628                   0.972764        -85.0355
1.632                  0.9669743        -85.7835
1.636                  0.9653303       -86.42911
1.64                   0.9679779       -87.08508
1.644                  0.9743019       -87.85414
1.648                  0.9830893       -88.80933
1.652                  0.9927944       -89.98349
1.656                   1.001832       -91.36909
1.66                    1.008835       -92.92528
1.664                   1.012846       -94.58862
1.668                   1.013423       -96.28439
1.672                   1.010674       -97.93701
1.676                   1.005212       -99.47986
1.68                   0.9980527       -100.8639
1.684                  0.9904556        -102.065
1.688                  0.9837232       -103.0891
1.692                  0.9789845       -103.9722
1.696                   0.977002       -104.7749
1.7                    0.9780412       -105.5715
1.704                  0.9818364       -106.4347
1.708                   0.987662       -107.4221
1.712                  0.9944849       -108.5666
1.716                    1.00116       -109.8728
1.72                    1.006628       -111.3192
1.724                   1.010071       -112.8645
1.728                    1.01103       -114.4549
1.732                   1.009449       -116.0327
1.736                   1.005675       -117.5445
1.74                    1.000389       -118.9481
1.744                  0.9945036       -120.2188
1.748                  0.9890133       -121.3545
1.752                  0.9848331       -122.3757
1.756                  0.9826428       -123.3236
1.76                   0.9827709       -124.2521
1.764                  0.9851426        -125.218
1.768                  0.9893058       -126.2702
1.772                  0.9945228       -127.4411
1.776                  0.9999108        -128.742
1.78                    1.004595        -130.163
1.784                   1.007847       -131.6764
1.788                   1.009193       -133.2417
1.792                   1.008473       -134.8129
1.796                   1.005857       -136.3445
1.8                      1.00181       -137.7982
1.804                  0.9970224       -139.1488
1.808                  0.9922934        -140.388
1.812                  0.9884061       -141.5262
1.816                  0.9859955       -142.5916
1.82                   0.9854408       -143.6252
1.824                  0.9868014       -144.6736
1.828                  0.9898137         -145.78
1.832                  0.9939449       -146.9767
1.836                  0.9984933       -148.2801
1.84                    1.002711       -149.6887
1.844                   1.005927       -151.1845
1.848                    1.00765       -152.7371
1.852                   1.007636       -154.3084
1.856                   1.005922       -155.8589
1.86                    1.002811       -157.3527
1.864                  0.9988273       -158.7632
1.868                  0.9946299       -160.0775
1.872                  0.9909102       -161.2981
1.876                   0.988276       -162.4436
1.88                   0.9871505       -163.5453
1.884                  0.9877002       -164.6421
1.888                  0.9898091       -165.7733
1.892                  0.9931032       -166.9714
1.896                  0.9970216       -168.2569
1.9                     1.000915       -169.6349
1.904                   1.004153       -171.0957
1.908                   1.006227       -172.6167
1.912                   1.006823       -174.1665
1.916                   1.005865       -175.7099
1.92                    1.003526       -177.2128
1.924                   1.000194       -178.6475
1.928                  0.9964177       -179.9969
1.932                  0.9928145        178.7428
1.936                  0.9899733        177.5611
1.94                   0.9883554        176.4342
1.944                  0.9882166        175.3295
1.948                  0.9895639        174.2109
1.952                  0.9921568        173.0458
1.956                  0.9955523        171.8103
1.96                   0.9991835        170.4933
1.964                   1.002457        169.0976
1.968                   1.004846         167.639
1.972                   1.005975        166.1432
1.976                   1.005675        164.6417
1.98                    1.004002        163.1669
1.984                   1.001231        161.7477
1.988                  0.9978144        160.4047
1.992                  0.9943073        159.1472
1.996                  0.9912817        157.9713
2                      0.9892318        156.8599
2.004                  0.9884899        155.7857
2.008                  0.9891699        154.7155
2.012                  0.9911476        153.6165
2.016                  0.9940843        152.4618
2.02                    0.997487        151.2352
2.024                   1.000793        149.9334
2.028                   1.003464        148.5658
2.032                   1.005068        147.1532
2.036                    1.00535        145.7234
2.04                    1.004265        144.3078
2.044                   1.001988        142.9362
2.048                  0.9988819        141.6323
2.052                  0.9954488        140.4104
2.056                  0.9922461        139.2723
2.06                   0.9897971         138.207
2.064                  0.9885037        137.1917
2.068                  0.9885768        136.1961
2.072                  0.9899981         135.187
2.076                  0.9925245        134.1349
2.08                     0.99573        133.0188
2.084                  0.9990805        131.8294
2.088                   1.002022        130.5706
2.092                   1.004071        129.2582
2.096                   1.004891        127.9171
2.1                      1.00434        126.5775
2.104                   1.002497        125.2703
2.108                  0.9996478        124.0226
2.112                  0.9962444        122.8532
2.116                  0.9928335        121.7696
2.12                   0.9899712        120.7663
2.124                  0.9881288         119.825
2.128                  0.9876125        118.9176
2.132                  0.9885081        118.0106
2.136                   0.990664        117.0716
2.14                   0.9937174        116.0743
2.144                  0.9971565        115.0038
2.148                   1.000407        113.8581
2.152                   1.002926        112.6483
2.156                   1.004287        111.3965
2.16                    1.004252        110.1325
2.164                     1.0028        108.8887
2.168                   1.000141        107.6957
2.172                  0.9966818        106.5778
2.176                  0.9929672        105.5483
2.18                   0.9895959        104.6077
2.184                  0.9871221         103.742
2.188                  0.9859605         102.925
2.192                  0.9863108        102.1225
2.196                  0.9881198        101.2979
2.2                    0.9910873         100.419
2.204                  0.9947154        99.46375
2.208                  0.9983933        98.42358
2.212                   1.001498        97.30469
2.216                   1.003493        96.12656
2.22                    1.004017        94.91881
2.224                   1.002937        93.71669
2.228                   1.000375        92.55598
2.232                  0.9966957        91.46768
2.236                  0.9924548        90.47294
2.24                   0.9883191         89.5792
2.244                  0.9849598        88.77774
2.248                  0.9829394        88.04429
2.252                  0.9826095        87.34223
2.256                  0.9840423        86.62884
2.26                   0.9870096        85.86292
2.264                  0.9910173         85.0122
2.268                   0.995386        84.05901
2.272                  0.9993628        83.00283
2.276                   1.002243        81.86015
2.28                     1.00348        80.66152
2.284                   1.002777        79.44713
2.288                   1.000133        78.26109
2.292                  0.9958594        77.14525
2.296                   0.990542         76.1328
2.3                    0.9849679         75.2423
2.304                  0.9800072        74.47311
2.308                  0.9764725         73.8034
2.312                  0.9749722        73.19197
2.316                    0.97579        72.58435
2.32                   0.9788152        71.92228
2.324                  0.9835464        71.15443
2.328                  0.9891642        70.24575
2.332                  0.9946618        69.18316
2.336                   0.999003        67.97736
2.34                    1.001283        66.66059
2.344                   1.000869        65.28206
2.348                  0.9975015        63.90161
2.352                  0.9913586        62.58233