! TOUCHSTONE file generated by CST MICROWAVE STUDIO
! Date and time: Tue Jun  7 20:03:47 2022
! Project name: AppElm_antenne_patch_FR4.cst
! Parameters = {L=49.5; W=58.5; e=0.035; h=1.6; lambda=0.190476; ls=120; w0=1.6; w1=0.533333; ws=120; y0=20; y1=23.8095}
! Header version: 2018
! Port assignment regex: !\s*Touchstone port\s*([0-9]+)\s*=\s*(CST MWS port|CST DS port)\s*([0-9]+|Zmin|Zmax)\s*\(\"(.*)\"\)(\s*mode\s*([0-9]+))?.*
! Touchstone port assignment:
! Touchstone port 1 = CST MWS port 1 ("")
# GHz S MA R 50
0                      0.9860055              -0
0.004                  0.9869146       -10.79462
0.008                  0.9895047       -21.47661
0.012                  0.9933885       -31.94004
0.016                  0.9979941       -42.09108
0.02                    1.002657        -51.8512
0.024                   1.006725       -61.15815
0.028                   1.009651       -69.96537
0.032                    1.01107       -78.24051
0.036                   1.010845       -85.96414
0.04                    1.009078        -93.1289
0.044                   1.006092       -99.73946
0.048                    1.00238       -105.8129
0.052                  0.9985279       -111.3791
0.056                  0.9951277       -116.4805
0.06                   0.9926824       -121.1706
0.064                  0.9915275         -125.51
0.068                  0.9917803        -129.562
0.072                  0.9933263       -133.3863
0.076                  0.9958484       -137.0338
0.08                   0.9988862       -140.5427
0.084                    1.00192       -143.9367
0.088                   1.004457       -147.2252
0.092                    1.00611       -150.4059
0.096                   1.006651       -153.4683
0.1                     1.006042       -156.3981
0.104                   1.004436       -159.1814
0.108                    1.00214       -161.8088
0.112                  0.9995699       -164.2783
0.116                   0.997172       -166.5975
0.12                   0.9953522       -168.7833
0.124                  0.9944052       -170.8606
0.128                  0.9944671       -172.8589
0.132                  0.9954945       -174.8077
0.136                  0.9972778       -176.7326
0.14                   0.9994834       -178.6516
0.144                   1.001716        179.4272
0.148                   1.003589        177.5052
0.152                   1.004788        175.5929
0.156                   1.005126        173.7063
0.16                    1.004565        171.8642
0.164                   1.003223        170.0844
0.168                   1.001351        168.3803
0.172                   0.999286        166.7586
0.176                  0.9973931        165.2173
0.18                    0.996003        163.7462
0.184                  0.9953524        162.3281
0.188                  0.9955432        160.9416
0.192                  0.9965264         159.565
0.196                  0.9981132          158.18
0.2                     1.000012        156.7745
0.204                   1.001881        155.3446
0.208                   1.003392        153.8946
0.212                   1.004285         152.436
0.216                   1.004411        150.9851
0.22                    1.003758        149.5598
0.224                   1.002448         148.177
0.228                    1.00072         146.849
0.232                  0.9988807        145.5817
0.236                  0.9972583        144.3731
0.24                    0.996139        143.2137
0.244                  0.9957177        142.0879
0.248                  0.9960635        140.9769
0.252                  0.9971072         139.862
0.256                   0.998656        138.7278
0.26                    1.000429        137.5651
0.264                    1.00211        136.3724
0.268                   1.003401        135.1556
0.272                   1.004077        133.9268
0.276                   1.004023        132.7022
0.28                    1.003253        131.4992
0.284                   1.001906        130.3333
0.288                   1.000223        129.2155
0.292                  0.9985029        128.1502
0.296                  0.9970536        127.1343
0.3                    0.9961329        126.1577
0.304                  0.9959039        125.2049
0.308                  0.9964054         124.258
0.312                  0.9975444        123.2996
0.316                  0.9991141        122.3163
0.32                    1.000833        121.3009
0.324                   1.002394        120.2537
0.328                    1.00352         119.182
0.332                   1.004014        118.0987
0.336                   1.003789        117.0204
0.34                    1.002888        115.9638
0.344                   1.001469        114.9436
0.348                  0.9997848        113.9694
0.352                  0.9981364        113.0439
0.356                  0.9968181        112.1627
0.36                   0.9960668        111.3146
0.364                  0.9960174        110.4836
0.368                  0.9966789        109.6519
0.372                  0.9979314        108.8031
0.376                  0.9995497        107.9252
0.38                    1.001244        107.0129
0.384                   1.002711         106.068
0.388                   1.003691        105.0994
0.392                   1.004009        104.1212
0.396                   1.003609        103.1502
0.4                     1.002561         102.203
0.404                   1.001049        101.2932
0.408                   0.999343        100.4291
0.412                  0.9977464        99.61178
0.416                  0.9965465        98.83514
0.42                   0.9959601        98.08661
0.424                  0.9960945        97.34936
0.428                  0.9969265        96.60558
0.432                   0.998307        95.83958
0.436                  0.9999882        95.04078
0.44                    1.001669        94.20553
0.444                   1.003048        93.33763
0.448                    1.00388        92.44752
0.452                   1.004015        91.55042
0.456                   1.003427        90.66367
0.46                    1.002219        89.80372
0.464                   1.000602         88.9833
0.468                  0.9988647        88.20909
0.472                   0.997318        87.48046
0.476                  0.9962411        86.78932
0.48                   0.9958303        86.12152
0.484                  0.9961626        85.45936
0.488                    0.99718        84.78483
0.492                  0.9987003        84.08301
0.496                   1.000451        83.34479
0.5                     1.002118        82.56839
0.504                   1.003402        81.75964
0.508                   1.004073        80.93077
0.512                   1.004009        80.09829
0.516                   1.003217        79.28009
0.52                    1.001835        78.49238
0.524                   1.000106        77.74681
0.528                   0.998339        77.04845
0.532                  0.9968513        76.39453
0.536                  0.9959135        75.77492
0.54                   0.9956984        75.17367
0.544                  0.9962482        74.57209
0.548                  0.9974669        73.95211
0.552                  0.9991362        73.29966
0.556                   1.000957        72.60726
0.56                    1.002601        71.87528
0.564                   1.003773        71.11176
0.568                   1.004262        70.33088
0.572                   1.003975        69.55046
0.576                    1.00296        68.78895
0.58                    1.001393         68.0622
0.584                  0.9995498        67.38065
0.588                  0.9977611        66.74738
0.592                  0.9963503        66.15728
0.596                  0.9955753         65.5979
0.6                    0.9955813        65.05145
0.604                  0.9963717        64.49822
0.608                  0.9978072        63.92017
0.612                  0.9996307        63.30432
0.616                   1.001514        62.64514
0.62                    1.003119        61.94537
0.624                   1.004155         61.2155
0.628                   1.004433        60.47174
0.632                   1.003898        59.73335
0.636                   1.002639        59.01919
0.64                    1.000875        58.34458
0.644                  0.9989203        57.71844
0.648                  0.9971242        57.14159
0.652                  0.9958143        56.60629
0.656                  0.9952324        56.09751
0.66                   0.9954898        55.59556
0.664                  0.9965455        55.07976
0.668                  0.9982121         54.5323
0.672                   1.000191        53.94162
0.676                   1.002126        53.30442
0.68                    1.003667        52.62612
0.684                   1.004535        51.91988
0.688                   1.004569        51.20413
0.692                   1.003755        50.49945
0.696                   1.002231        49.82508
0.7                     1.000263        49.19551
0.704                  0.9982016        48.61781
0.708                  0.9964188        48.09018
0.712                  0.9952408        47.60192
0.716                  0.9948876        47.13522
0.72                   0.9954309         46.6684
0.724                  0.9967783        46.17991
0.728                  0.9986898        45.65251
0.732                   1.000822        45.07636
0.736                   1.002791        44.45078
0.74                    1.004239        43.78425
0.744                   1.004901        43.09277
0.748                   1.004652         42.3971
0.752                   1.003526        41.71916
0.756                   1.001714        41.07835
0.76                   0.9995359        40.48801
0.764                  0.9973795        39.95302
0.768                  0.9956363        39.46849
0.772                  0.9946279        39.02039
0.776                   0.994546        38.58795
0.78                   0.9954146        38.14741
0.784                  0.9970828        37.67662
0.788                   0.999253        37.15913
0.792                   1.001535         36.5873
0.796                   1.003515        35.96351
0.8                     1.004834         35.2996
0.804                   1.005248        34.61475
0.808                   1.004671        33.93208
0.812                   1.003196        33.27483
0.816                   1.001074        32.66231
0.82                   0.9986802        32.10642
0.824                  0.9964433         31.6093
0.828                  0.9947721        31.16252
0.832                  0.9939786        30.74833
0.836                  0.9942179        30.34271
0.84                   0.9954573        29.91987
0.844                  0.9974797        29.45721
0.848                  0.9999233        28.93952
0.852                   1.002348        28.36182
0.856                   1.004314        27.73002
0.86                    1.005462        27.05977
0.864                   1.005576        26.37366
0.868                   1.004621        25.69736
0.872                   1.002752        25.05533
0.876                   1.000293        24.46655
0.88                   0.9976774        23.94103
0.884                  0.9953773        23.47766
0.888                  0.9938165        23.06391
0.892                  0.9932908        22.67777
0.896                  0.9939098        22.29171
0.9                    0.9955735         21.8779
0.904                   0.997989        21.41353
0.908                   1.000724        20.88512
0.912                   1.003284        20.29087
0.916                   1.005204        19.64082
0.92                     1.00613        18.95491
0.924                   1.005881        18.25949
0.928                   1.004483        17.58296
0.932                   1.002167        16.95096
0.936                  0.9993337        16.38187
0.94                   0.9964853        15.88332
0.944                  0.9941396        15.45028
0.948                  0.9927328        15.06539
0.952                  0.9925375        14.70179
0.956                  0.9936069        14.32808
0.96                   0.9957613        13.91429
0.964                  0.9986196        13.43772
0.968                   1.001669        12.88711
0.972                   1.004358        12.26456
0.976                   1.006196         11.5849
0.98                    1.006838        10.87297
0.984                   1.006148        10.15942
0.988                   1.004223        9.475618
0.992                   1.001386        8.848409
0.996                  0.9981259        8.295319
1                       0.995025        7.820991
1.004                  0.9926503        7.415634
1.008                  0.9914498        7.056126
1.012                  0.9916643        6.709919
1.016                  0.9932768        6.341151
1.02                   0.9960121        5.917611
1.024                  0.9993848         5.41696
1.028                   1.002789        4.830799
1.032                   1.005607        4.165938
1.036                   1.007321        3.442917
1.04                    1.007601        2.692364
1.044                   1.006366        1.949918
1.048                   1.003803        1.250433
1.052                   1.000338       0.6221198
1.056                  0.9965734      0.08136981
1.06                   0.9931833      -0.3708841
1.064                   0.990794      -0.7503139
1.068                   0.989865       -1.087148
1.072                  0.9905963       -1.420892
1.076                  0.9928835       -1.792759
1.08                   0.9963328       -2.237558
1.084                   1.000331          -2.777
1.088                    1.00416       -3.415867
1.092                   1.007121       -4.141527
1.096                   1.008665       -4.926453
1.1                     1.008479        -5.73295
1.104                   1.006552        -6.51916
1.108                   1.003179       -7.245947
1.112                  0.9989218       -7.883149
1.116                  0.9945199       -8.415794
1.12                   0.9907669       -8.847598
1.124                  0.9883656        -9.20173
1.128                  0.9877913       -9.517572
1.132                  0.9891924       -9.843684
1.136                  0.9923524        -10.2282
1.14                   0.9967248        -10.7093
1.144                   1.001533       -11.30789
1.148                   1.005909       -12.02414
1.152                   1.009053       -12.83804
1.156                   1.010366        -13.7131
1.16                    1.009558       -14.60245
1.164                   1.006703       -15.45604
1.168                   1.002235       -16.22853
1.172                  0.9968928       -16.88698
1.176                  0.9916051       -17.41761
1.18                   0.9873316       -17.83004
1.184                  0.9848864        -18.1576
1.188                   0.984775       -18.45242
1.192                  0.9870817        -18.7758
1.196                  0.9914406       -19.18588
1.2                    0.9970963       -19.72589
1.204                   1.003042       -20.41606
1.208                   1.008202       -21.25065
1.212                   1.011619       -22.19971
1.216                   1.012616       -23.21461
1.22                    1.010918       -24.23554
1.224                   1.006703       -25.20033
1.228                   1.000597       -26.05389
1.232                  0.9935933       -26.75773
1.236                  0.9869008       -27.29849
1.24                   0.9817427       -27.69344
1.244                   0.979124       -27.99071
1.248                  0.9796208       -28.26216
1.252                  0.9832434       -28.58964
1.256                  0.9894118       -29.04804
1.26                   0.9970556       -29.68988
1.264                   1.004809       -30.53584
1.268                   1.011254       -31.57237
1.272                   1.015162       -32.75552
1.276                   1.015698       -34.01848
1.28                    1.012562       -35.28118
1.284                   1.006058       -36.46099
1.288                   0.997089       -37.48448
1.292                  0.9870507       -38.30013
1.296                  0.9776423       -38.89091
1.3                    0.9705832       -39.28374
1.304                  0.9672822       -39.55119
1.308                  0.9685223        -39.8016
1.312                  0.9742536        -40.1578
1.316                  0.9835607       -40.73036
1.32                    0.994818       -41.59442
1.324                   1.005985       -42.77704
1.328                    1.01496       -44.25606
1.332                   1.019915       -45.96714
1.336                   1.019579       -47.81456
1.34                    1.013433       -49.68287
1.344                   1.001842       -51.44898
1.348                  0.9860818       -52.99634
1.352                   0.968265       -54.23331
1.356                  0.9511226       -55.11679
1.36                   0.9376071       -55.67736
1.364                  0.9303296       -56.03575
1.368                  0.9309264       -56.39609
1.372                  0.9395529       -57.00845
1.376                  0.9547049       -58.11223
1.38                    0.973437       -59.88614
1.384                  0.9918627       -62.42567
1.388                   1.005733       -65.74924
1.392                   1.010938       -69.82025
1.396                   1.003861       -74.57128
1.4                    0.9816086       -79.92317
1.404                   0.942129       -85.79765
1.408                  0.8842681       -92.12495
1.412                  0.8077741       -98.84902
1.416                  0.7132671       -105.9339
1.42                   0.6021827       -113.3772
1.424                  0.4766944       -121.2484
1.428                  0.3396373       -129.8313
1.432                  0.1945579       -140.4288
1.436                 0.04907795       -170.9121
1.44                    0.112002        44.58232
1.444                  0.2592312        29.78781
1.448                  0.4010872        20.39808
1.452                  0.5331837        12.17118
1.456                  0.6523406        4.477104
1.46                   0.7560309       -2.840648
1.464                    0.84242       -9.812094
1.468                  0.9104449       -16.41779
1.472                  0.9598804       -22.61237
1.476                  0.9913829       -28.33361
1.48                    1.006504       -33.50777
1.484                   1.007667       -38.05539
1.488                  0.9980837       -41.90072
1.492                  0.9815967        -44.9868
1.496                  0.9624057       -47.29702
1.5                     0.944653       -48.87972
1.504                  0.9318851       -49.86546
1.508                  0.9264888        -50.4624
1.512                  0.9292888       -50.92145
1.516                  0.9394879       -51.48037
1.52                   0.9549939       -52.31256
1.524                  0.9729968       -53.50205
1.528                  0.9905836       -55.04784
1.532                   1.005233       -56.88535
1.536                   1.015132       -58.91163
1.54                    1.019333       -61.00665
1.544                   1.017781       -63.04936
1.548                   1.011252        -64.9303
1.552                   1.001209       -66.56293
1.556                  0.9895795       -67.89475
1.56                   0.9784713       -68.91716
1.564                  0.9698316       -69.67073
1.568                  0.9651143       -70.24132
1.572                  0.9650206       -70.74481
1.576                  0.9693906       -71.30276
1.58                   0.9772798        -72.0166
1.584                  0.9871934       -72.94913
1.588                  0.9974023       -74.11774
1.592                   1.006257       -75.49808
1.596                   1.012445       -77.03431
1.6                     1.015157       -78.65147
1.604                   1.014173       -80.26739
1.608                   1.009852       -81.80385
1.612                   1.003065       -83.19633
1.616                  0.9950492       -84.40312
1.62                   0.9872131       -85.41237
1.624                  0.9809045       -86.24563
1.628                  0.9771789       -86.95542
1.632                   0.976614       -87.61621
1.636                  0.9792131       -88.30955
1.64                   0.9844254       -89.10764
1.644                  0.9912746       -90.05995
1.648                  0.9985578       -91.18609
1.652                   1.005066       -92.47561
1.656                    1.00978       -93.89299
1.66                     1.01202       -95.38561
1.664                   1.011528       -96.89255
1.668                   1.008488       -98.35354
1.672                   1.003486       -99.71723
1.676                  0.9974103       -100.9486
1.68                   0.9913103       -102.0346
1.684                  0.9862235       -102.9873
1.688                  0.9829986       -103.8426
1.692                  0.9821483        -104.654
1.696                  0.9837617       -105.4827
1.7                    0.9874997       -106.3857
1.704                  0.9926709       -107.4049
1.708                  0.9983698       -108.5609
1.712                   1.003642       -109.8509
1.716                   1.007642       -111.2513
1.72                    1.009764       -112.7231
1.724                   1.009723       -114.2185
1.728                   1.007589       -115.6884
1.732                   1.003762       -117.0893
1.736                  0.9989118       -118.3895
1.74                   0.9938636       -119.5745
1.744                  0.9894675       -120.6496
1.748                  0.9864538       -121.6396
1.752                  0.9853083       -122.5848
1.756                   0.986189       -123.5339
1.76                   0.9889044       -124.5343
1.764                  0.9929565        -125.624
1.768                  0.9976387       -126.8245
1.772                   1.002164       -128.1389
1.776                   1.005797       -129.5522
1.78                    1.007972        -131.035
1.784                   1.008372       -132.5488
1.788                   1.006973       -134.0521
1.792                   1.004035       -135.5063
1.796                   1.000066       -136.8813
1.8                    0.9957329       -138.1607
1.804                  0.9917585       -139.3439
1.808                  0.9887998       -140.4474
1.812                  0.9873369       -141.5017
1.816                  0.9875919       -142.5465
1.82                   0.9894924        -143.623
1.824                  0.9926909       -144.7663
1.828                  0.9966306       -145.9998
1.832                   1.000649       -147.3314
1.836                   1.004087       -148.7531
1.84                      1.0064       -150.2432
1.844                   1.007234       -151.7706
1.848                    1.00648       -153.2994
1.852                   1.004285       -154.7944
1.856                   1.001022       -156.2263
1.86                   0.9972337       -157.5762
1.864                  0.9935474       -158.8387
1.868                  0.9905689        -160.023
1.872                  0.9887835       -161.1519
1.876                  0.9884731       -162.2579
1.88                   0.9896695       -163.3773
1.884                  0.9921512       -164.5435
1.888                  0.9954871       -165.7817
1.892                  0.9991148       -167.1042
1.896                   1.002436        -168.509
1.9                     1.004917       -169.9814
1.904                   1.006167       -171.4963
1.908                   1.006002       -173.0225
1.912                   1.004463       -174.5276
1.916                    1.00181       -175.9826
1.92                   0.9984811       -177.3662
1.924                  0.9950219       -178.6685
1.928                  0.9919983       -179.8926
1.932                  0.9899039        178.9454
1.936                  0.9890758        177.8192
1.94                    0.989638        176.6965
1.944                  0.9914815        175.5453
1.948                  0.9942854        174.3389
1.952                  0.9975757         173.061
1.956                   1.000807        171.7076
1.96                    1.003453        170.2876
1.964                   1.005091        168.8205
1.968                   1.005464        167.3331
1.972                   1.004521        165.8555
1.976                   1.002419        164.4167
1.98                   0.9995006        163.0398
1.984                  0.9962406        161.7389
1.988                  0.9931696        160.5164
1.992                  0.9907876        159.3622
1.996                  0.9894823        158.2554
2                       0.989461        157.1676
2.004                   0.990717        156.0678
2.008                  0.9930304         154.928
2.012                  0.9960091        153.7281
2.016                  0.9991566         152.459
2.02                    1.001955        151.1237
2.024                    1.00395        149.7366
2.028                   1.004819        148.3204
2.032                   1.004424        146.9032
2.036                   1.002828        145.5136
2.04                    1.000285        144.1767
2.044                  0.9972033        142.9104
2.048                  0.9940794        141.7221
2.052                  0.9914209        140.6073
2.056                  0.9896609        139.5502
2.06                   0.9890857        138.5258
2.064                  0.9897846        137.5043
2.068                   0.991634        136.4565
2.072                    0.99432        135.3586
2.076                  0.9973926        134.1966
2.08                    1.000342        132.9677
2.084                   1.002682        131.6813
2.088                   1.004027        130.3564
2.092                   1.004154        129.0189
2.096                   1.003032        127.6974
2.1                      1.00083         126.419
2.104                  0.9978937        125.2052
2.108                  0.9946879        124.0686
2.112                  0.9917284          123.01
2.116                  0.9894968        122.0187
2.12                   0.9883583         121.073
2.124                  0.9884999        120.1442
2.128                  0.9898952        119.2017
2.132                  0.9923082        118.2178
2.136                   0.995334         117.173
2.14                   0.9984675        116.0592
2.144                   1.001186        114.8802
2.148                   1.003034        113.6512
2.152                   1.003695        112.3962
2.156                    1.00304         111.144
2.16                     1.00115        109.9242
2.164                  0.9983041        108.7626
2.168                  0.9949405        107.6773
2.172                  0.9915897        106.6752
2.176                  0.9887916        105.7508
2.18                   0.9870046        104.8859
2.184                  0.9865268        104.0527
2.188                  0.9874412        103.2185
2.192                  0.9895975        102.3509
2.196                  0.9926365         101.424
2.2                    0.9960493        100.4225
2.204                  0.9992611        99.34432
2.208                   1.001725        98.20044
2.212                   1.003009        97.01297
2.216                   1.002863        95.81172
2.22                    1.001261        94.62981
2.224                  0.9984083        93.49882
2.228                  0.9947184        92.44402
2.232                  0.9907512        91.48004
2.236                  0.9871315        90.60785
2.24                   0.9844465        89.81358
2.244                  0.9831455        89.07007
2.248                  0.9834571        88.34088
2.252                  0.9853423         87.5866
2.256                  0.9884939        86.77177
2.26                   0.9923851        85.87122
2.264                   0.996354        84.87428
2.268                  0.9997107        83.78623
2.272                   1.001847        82.62724
2.276                   1.002334        81.42918
2.28                    1.000989        80.23117
2.284                  0.9979134        79.07393
2.288                  0.9934882        77.99405
2.292                  0.9883302        77.01812
2.296                  0.9832071        76.15756
2.3                    0.9789218        75.40508
2.304                  0.9761776        74.73404
2.308                  0.9754496        74.10139
2.312                   0.976886        73.45446
2.316                  0.9802644        72.74018
2.32                   0.9850154        71.91471
2.324                  0.9903068        70.95126
2.328                   0.995174        69.84429
2.332                  0.9986699        68.61011
2.336                   1.000011        67.28415
2.34                   0.9986986        65.91631
2.344                  0.9946083        64.56452
2.348                  0.9880305        63.28757
2.352                  0.9796634        62.13678