! TOUCHSTONE file generated by CST MICROWAVE STUDIO
! Date and time: Tue Jun  7 20:03:41 2022
! Project name: AppElm_antenne_patch_FR4.cst
! Parameters = {L=36; W=58.5; e=0.035; h=1.6; lambda=0.190476; ls=120; w0=1.6; w1=0.533333; ws=120; y0=20; y1=23.8095}
! Header version: 2018
! Port assignment regex: !\s*Touchstone port\s*([0-9]+)\s*=\s*(CST MWS port|CST DS port)\s*([0-9]+|Zmin|Zmax)\s*\(\"(.*)\"\)(\s*mode\s*([0-9]+))?.*
! Touchstone port assignment:
! Touchstone port 1 = CST MWS port 1 ("")
# GHz S MA R 50
0                      0.9971688              -0
0.004                  0.9973448       -8.199985
0.008                  0.9978483        -16.3503
0.012                  0.9986096       -24.40286
0.016                  0.9995239       -32.31262
0.02                    1.000466       -40.03879
0.024                    1.00131       -47.54576
0.028                   1.001943       -54.80374
0.032                   1.002286        -61.7891
0.036                   1.002299       -68.48455
0.04                    1.001991       -74.87917
0.044                   1.001413       -80.96817
0.048                   1.000654       -86.75276
0.052                  0.9998245       -92.23956
0.056                  0.9990434       -97.44012
0.06                   0.9984188         -102.37
0.064                  0.9980331       -107.0477
0.068                  0.9979317       -111.4935
0.072                  0.9981178       -115.7279
0.076                  0.9985523       -119.7709
0.08                   0.9991616       -123.6404
0.084                  0.9998495       -127.3515
0.088                   1.000512       -130.9167
0.092                   1.001052       -134.3452
0.096                   1.001398       -137.6436
0.1                     1.001505       -140.8166
0.104                   1.001371       -143.8677
0.108                   1.001027       -146.8004
0.112                   1.000536       -149.6182
0.116                  0.9999804       -152.3262
0.12                   0.9994501       -154.9307
0.124                  0.9990276       -157.4394
0.128                  0.9987759       -159.8614
0.132                  0.9987285       -162.2062
0.136                  0.9988861       -164.4833
0.14                   0.9992167       -166.7014
0.144                   0.999662       -168.8677
0.148                   1.000147       -170.9875
0.152                   1.000595        -173.064
0.156                   1.000934       -175.0984
0.16                    1.001114       -177.0903
0.164                   1.001112       -179.0384
0.168                   1.000934        179.0592
0.172                   1.000613        177.2038
0.176                   1.000206        175.3959
0.18                    0.999782        173.6347
0.184                  0.9994095        171.9178
0.188                  0.9991481        170.2414
0.192                  0.9990375        168.6008
0.196                  0.9990916        166.9907
0.2                    0.9992972        165.4061
0.204                   0.999616        163.8424
0.208                  0.9999927        162.2967
0.212                   1.000363        160.7672
0.216                   1.000666        159.2539
0.22                    1.000852        157.7581
0.224                   1.000894        156.2822
0.228                   1.000786        154.8287
0.232                    1.00055        153.4001
0.236                   1.000227        151.9983
0.24                   0.9998732        150.6238
0.244                  0.9995474         149.276
0.248                  0.9993037        147.9527
0.252                  0.9991815         146.651
0.256                  0.9991993        145.3671
0.26                   0.9993514        144.0971
0.264                    0.99961        142.8377
0.268                  0.9999298        141.5864
0.272                   1.000255        140.3421
0.276                   1.000532        139.1048
0.28                    1.000714        137.8759
0.284                    1.00077        136.6579
0.288                   1.000694        135.4533
0.292                   1.000501        134.2648
0.296                   1.000223        133.0946
0.3                    0.9999099        131.9437
0.304                  0.9996146         130.812
0.308                  0.9993873        129.6981
0.312                  0.9992661        128.5996
0.316                  0.9992703        127.5134
0.32                    0.999398        126.4362
0.324                  0.9996255         125.365
0.328                   0.999913        124.2979
0.332                   1.000211        123.2336
0.336                   1.000466        122.1723
0.34                    1.000638        121.1156
0.344                   1.000695        120.0655
0.348                   1.000629        119.0247
0.352                   1.000452         117.996
0.356                   1.000195        116.9814
0.36                   0.9999032        115.9821
0.364                  0.9996262        114.9983
0.368                  0.9994118        114.0287
0.372                  0.9992965        113.0713
0.376                  0.9992994        112.1232
0.38                   0.9994193        111.1815
0.384                  0.9996347        110.2433
0.388                  0.9999073        109.3067
0.392                    1.00019        108.3708
0.396                   1.000433        107.4358
0.4                     1.000594         106.503
0.404                   1.000646        105.5748
0.408                    1.00058        104.6538
0.412                   1.000408        103.7425
0.416                    1.00016        102.8431
0.42                   0.9998799        101.9568
0.424                  0.9996158        101.0837
0.428                  0.9994143        100.2226
0.432                  0.9993102        99.37167
0.436                  0.9993216          98.528
0.44                   0.9994464        97.68879
0.444                  0.9996623         96.8514
0.448                  0.9999318        96.01396
0.452                   1.000207        95.17566
0.456                   1.000441        94.33689
0.46                    1.000592        93.49906
0.464                   1.000633        92.66445
0.468                   1.000559        91.83573
0.472                   1.000381        91.01552
0.476                   1.000131        90.20587
0.48                   0.9998534        89.40792
0.484                  0.9995962        88.62171
0.488                  0.9994049        87.84609
0.492                  0.9993131        87.07897
0.496                  0.9993371        86.31759
0.5                    0.9994723        85.55911
0.504                  0.9996949        84.80102
0.508                  0.9999657        84.04154
0.512                   1.000237        83.28003
0.516                    1.00046          82.517
0.52                    1.000596        81.75407
0.524                    1.00062        80.99355
0.528                   1.000528        80.23823
0.532                   1.000336        79.49071
0.536                   1.000076        78.75295
0.54                   0.9997947        78.02604
0.544                  0.9995415        77.30983
0.548                  0.9993609        76.60301
0.552                  0.9992845        75.90341
0.556                  0.9993265        75.20815
0.56                   0.9994788        74.51441
0.564                  0.9997148        73.81968
0.568                  0.9999925         73.1224
0.572                   1.000262        72.42206
0.576                   1.000477        71.71941
0.58                    1.000596        71.01622
0.584                     1.0006        70.31503
0.588                   1.000486        69.61865
0.592                   1.000275        68.92972
0.596                   1.000003        68.25013
0.6                    0.9997172        67.58077
0.604                  0.9994694         66.9213
0.608                  0.9993033        66.27022
0.612                  0.9992485        65.62512
0.616                  0.9993153        64.98306
0.62                   0.9994918         64.3411
0.624                  0.9997471        63.69688
0.628                   1.000036        63.04897
0.632                   1.000306        62.39712
0.636                    1.00051         61.7423
0.64                     1.00061        61.08657
0.644                   1.000589        60.43265
0.648                   1.000448        59.78348
0.652                   1.000213        59.14166
0.656                  0.9999241        58.50899
0.66                   0.9996331        57.88616
0.664                  0.9993915        57.27254
0.668                  0.9992423        56.66637
0.672                  0.9992128        56.06497
0.676                  0.9993086         55.4653
0.68                   0.9995127        54.86437
0.684                  0.9997894        54.25992
0.688                   1.000089        53.65069
0.692                   1.000357        53.03675
0.696                   1.000546        52.41939
0.7                     1.000621        51.80095
0.704                   1.000568         51.1844
0.708                   1.000395        50.57275
0.712                   1.000131        49.96859
0.716                  0.9998242        49.37356
0.72                   0.9995274        48.78806
0.724                  0.9992942        48.21118
0.728                  0.9991665         47.6408
0.732                  0.9991674        47.07399
0.736                  0.9992972         46.5075
0.74                   0.9995333        45.93839
0.744                  0.9998335        45.36448
0.748                   1.000144        44.78479
0.752                   1.000409        44.19972
0.756                    1.00058        43.61093
0.76                    1.000625         43.0211
0.764                   1.000536         42.4334
0.768                   1.000326        41.85098
0.772                   1.000033        41.27632
0.776                  0.9997075        40.71088
0.78                   0.9994082        40.15473
0.784                  0.9991883        39.60657
0.788                   0.999088        39.06389
0.792                  0.9991257        38.52351
0.796                  0.9992954        37.98199
0.8                     0.999567        37.43641
0.804                  0.9998922        36.88477
0.808                   1.000213        36.32641
0.812                    1.00047        35.76212
0.816                   1.000618        35.19398
0.82                    1.000628        34.62503
0.824                   1.000496        34.05868
0.828                   1.000247        33.49811
0.832                  0.9999218        32.94574
0.836                  0.9995791        32.40273
0.84                     0.99928        31.86877
0.844                  0.9990782         31.3421
0.848                  0.9990109        30.81984
0.852                  0.9990907        30.29847
0.856                   0.999304        29.77444
0.86                    0.999613        29.24487
0.864                  0.9999625          28.708
0.868                   1.000289        28.16355
0.872                   1.000534        27.61277
0.876                   1.000652         27.0582
0.88                     1.00062        26.50323
0.884                   1.000442        25.95149
0.888                   1.000148        25.40623
0.892                  0.9997911        24.86965
0.896                  0.9994334        24.34259
0.9                    0.9991394        23.82428
0.904                  0.9989623        23.31248
0.908                  0.9989348        22.80386
0.912                  0.9990628         22.2946
0.916                  0.9993242        21.78106
0.92                   0.9996724        21.26045
0.924                   1.000045        20.73132
0.928                   1.000375        20.19384
0.932                   1.000602        19.64978
0.936                   1.000683        19.10215
0.94                    1.000603        18.55473
0.944                   1.000373        18.01134
0.948                   1.000034         17.4752
0.952                  0.9996459        16.94829
0.956                  0.9992769        16.43101
0.96                   0.9989939        15.92209
0.964                  0.9988483        15.41875
0.968                  0.9988677         14.9172
0.972                  0.9990495        14.41334
0.976                  0.9993621        13.90348
0.98                   0.9997497        13.38498
0.984                   1.000143        12.85679
0.988                    1.00047        12.31959
0.992                   1.000671        11.77571
0.996                   1.000708        11.22868
1                       1.000573        10.68264
1.004                   1.000287        10.14158
1.008                  0.9999011        9.608628
1.012                  0.9994824        9.085458
1.016                  0.9991061        8.571981
1.02                   0.9988402        8.066327
1.024                  0.9987336        7.565143
1.028                  0.9988066        7.064194
1.032                  0.9990474        6.559111
1.036                  0.9994138        6.046185
1.04                     0.99984        5.523043
1.044                    1.00025        4.989075
1.048                   1.000568        4.445555
1.052                   1.000736        3.895415
1.056                   1.000722        3.342722
1.06                    1.000526        2.791965
1.064                    1.00018        2.247246
1.068                  0.9997463        1.711539
1.072                  0.9993002         1.18613
1.076                  0.9989224       0.6703611
1.08                   0.9986813        0.161711
1.084                  0.9986216      -0.3437791
1.088                  0.9987556      -0.8508059
1.092                  0.9990605       -1.363961
1.096                  0.9994827       -1.886896
1.1                    0.9999464       -2.421663
1.104                   1.000368       -2.968332
1.108                    1.00067       -3.524968
1.112                   1.000797       -4.088023
1.116                   1.000724       -4.652825
1.12                     1.00046       -5.214622
1.124                   1.000051       -5.769232
1.128                  0.9995682       -6.313893
1.132                  0.9990975       -6.847793
1.136                  0.9987234       -7.372241
1.14                   0.9985141       -7.890464
1.144                  0.9985087       -8.407054
1.148                  0.9987097       -8.927161
1.152                  0.9990825       -9.455556
1.156                  0.9995612       -9.995767
1.16                     1.00006       -10.54944
1.164                   1.000488       -11.11603
1.168                   1.000766       -11.69291
1.172                   1.000844       -12.27579
1.176                   1.000703       -12.85953
1.18                    1.000365       -13.43901
1.184                  0.9998896       -14.01007
1.188                  0.9993588       -14.57026
1.192                  0.9988674       -15.11932
1.196                  0.9985038       -15.65928
1.2                    0.9983347       -16.19413
1.204                  0.9983923       -16.72913
1.208                  0.9986681       -17.26985
1.212                  0.9991144        -17.8212
1.216                  0.9996518       -18.38653
1.22                    1.000184         -18.967
1.224                   1.000614       -19.56137
1.228                   1.000863       -20.16623
1.232                   1.000884       -20.77659
1.236                   1.000669       -21.38674
1.24                    1.000253       -21.99131
1.244                  0.9997085       -22.58619
1.248                  0.9991306       -23.16929
1.252                  0.9986226       -23.74101
1.256                  0.9982761       -24.30416
1.26                   0.9981552       -24.86354
1.264                  0.9982838       -25.42509
1.268                  0.9986411       -25.99481
1.272                  0.9991646       -26.57771
1.276                  0.9997612       -27.17688
1.28                    1.000324       -27.79289
1.284                   1.000751       -28.42377
1.288                   1.000962       -29.06525
1.292                   1.000916       -29.71161
1.296                   1.000618       -30.35657
1.3                     1.000116        -30.9945
1.304                  0.9994973        -31.6214
1.308                  0.9988702       -32.23562
1.312                  0.9983464       -32.83829
1.316                  0.9980207       -33.43307
1.32                   0.9979534       -34.02563
1.324                  0.9981591       -34.62262
1.328                  0.9986031       -35.23047
1.332                  0.9992076       -35.85424
1.336                   0.999865        -36.4967
1.34                    1.000457       -37.15782
1.344                   1.000875       -37.83475
1.348                   1.001042       -38.52238
1.352                   1.000922       -39.21413
1.356                   1.000533        -39.9032
1.36                   0.9999382       -40.58371
1.364                  0.9992412       -41.25178
1.368                  0.9985639       -41.90628
1.372                   0.998027       -42.54911
1.376                  0.9977279       -43.18489
1.38                   0.9977226       -43.82022
1.384                  0.9980154       -44.46249
1.388                  0.9985561       -45.11859
1.392                  0.9992506       -45.79363
1.396                  0.9999752          -46.49
1.4                       1.0006         -47.207
1.404                    1.00101       -47.94089
1.408                   1.001128       -48.68553
1.412                   1.000929       -49.43354
1.416                   1.000441       -50.17747
1.42                   0.9997465       -50.91118
1.424                  0.9989645       -51.63095
1.428                  0.9982326       -52.33618
1.432                  0.9976814       -53.02962
1.436                  0.9974109       -53.71693
1.44                   0.9974727       -54.40571
1.444                  0.9978597       -55.10418
1.448                  0.9985057       -55.81971
1.452                  0.9992977       -56.55747
1.456                   1.000095       -57.31949
1.46                    1.000754       -58.10429
1.464                   1.001154       -58.90716
1.468                   1.001218       -59.72091
1.472                   1.000927       -60.53717
1.476                   1.000327       -61.34778
1.48                   0.9995153       -62.14627
1.484                  0.9986325       -62.92905
1.488                  0.9978323       -63.69607
1.492                   0.997257       -64.45101
1.496                  0.9970111       -65.20061
1.5                    0.9971419       -65.95367
1.504                    0.99763       -66.71934
1.508                  0.9983924       -67.50558
1.512                  0.9992952       -68.31769
1.516                   1.000178       -69.15734
1.52                    1.000881       -70.02228
1.524                   1.001275       -70.90666
1.528                   1.001283       -71.80214
1.532                   1.000893       -72.69918
1.536                   1.000166       -73.58879
1.54                   0.9992209       -74.46402
1.544                  0.9982195       -75.32129
1.548                  0.9973362       -76.16113
1.552                  0.9967275       -76.98821
1.556                  0.9965049       -77.81056
1.56                   0.9967129       -78.63829
1.564                  0.9973197       -79.48175
1.568                  0.9982225       -80.34967
1.572                  0.9992637       -81.24762
1.576                   1.000259       -82.17697
1.58                    1.001029       -83.13459
1.584                   1.001431       -84.11346
1.588                   1.001384       -85.10373
1.592                   1.000886       -86.09453
1.596                    1.00001       -87.07565
1.6                    0.9989021       -88.03945
1.604                  0.9977487       -88.98221
1.608                  0.9967503         -89.905
1.612                  0.9960841       -90.81349
1.616                  0.9958724       -91.71726
1.62                   0.9961592       -92.62808
1.624                  0.9969006       -93.55786
1.628                  0.9979709       -94.51641
1.632                  0.9991837       -95.50985
1.636                   1.000324       -96.53928
1.64                    1.001185       -97.60071
1.644                   1.001604       -98.68559
1.648                   1.001493        -99.7823
1.652                   1.000854        -100.878
1.656                  0.9997807       -101.9609
1.66                   0.9984457       -103.0222
1.664                  0.9970718       -104.0578
1.668                  0.9958948        -105.069
1.672                  0.9951224        -106.063
1.676                  0.9948958       -107.0511
1.68                   0.9952629       -108.0474
1.684                  0.9961673        -109.066
1.688                  0.9974553       -110.1185
1.692                  0.9989019        -111.212
1.696                   1.000248       -112.3475
1.7                     1.001247         -113.52
1.704                   1.001706        -114.719
1.708                   1.001519       -115.9305
1.712                   1.000691       -117.1387
1.716                  0.9993389       -118.3295
1.72                   0.9976737        -119.492
1.724                  0.9959694       -120.6212
1.728                  0.9945163       -121.7189
1.732                  0.9935702       -122.7937
1.736                  0.9933062         -123.86
1.74                   0.9937832       -124.9352
1.744                    0.99493       -126.0371
1.748                  0.9965529       -127.1803
1.752                  0.9983671       -128.3737
1.756                   1.000045       -129.6185
1.76                    1.001269       -130.9085
1.764                   1.001792       -132.2302
1.768                   1.001477       -133.5656
1.772                   1.000326       -134.8945
1.776                  0.9984875       -136.1983
1.78                    0.996234       -137.4626
1.784                  0.9939258       -138.6805
1.788                  0.9919489       -139.8541
1.792                  0.9906491       -140.9947
1.796                  0.9902675       -142.1217
1.8                    0.9908889       -143.2592
1.804                  0.9924197       -144.4318
1.808                  0.9945934       -145.6603
1.812                  0.9970122       -146.9576
1.816                  0.9992088       -148.3262
1.82                    1.000726       -149.7576
1.824                   1.001192       -151.2333
1.828                   1.000391       -152.7275
1.832                  0.9983083       -154.2107
1.836                  0.9951422       -155.6545
1.84                   0.9912918       -157.0367
1.844                  0.9873026       -158.3452
1.848                   0.983783       -159.5823
1.852                  0.9812987       -160.7659
1.856                  0.9802605       -161.9285
1.86                   0.9808258       -163.1127
1.864                  0.9828364       -164.3645
1.868                  0.9858067       -165.7251
1.872                  0.9889665       -167.2235
1.876                  0.9913512       -168.8709
1.88                   0.9919231       -170.6581
1.884                  0.9897044       -172.5547
1.888                  0.9839055       -174.5119
1.892                  0.9740378       -176.4644
1.896                  0.9600033       -178.3348
1.9                    0.9421563        179.9623
1.904                  0.9213314         178.514
1.908                  0.8988315        177.3999
1.912                  0.8763612        176.6809
1.916                  0.8558892        176.3831
1.92                   0.8394324        176.4829
1.924                  0.8287689        176.8965
1.928                  0.8251292        177.4842
1.932                  0.8289503        178.0718
1.936                  0.8397832        178.4853
1.94                   0.8563888        178.5857
1.944                  0.8769852        178.2904
1.948                  0.8995571        177.5767
1.952                  0.9221424        176.4715
1.956                  0.9430474         175.036
1.96                   0.9609834        173.3501
1.964                   0.975131        171.5005
1.968                   0.985152        169.5719
1.972                  0.9911573        167.6407
1.976                  0.9936428        165.7708
1.98                   0.9933968        164.0094
1.984                  0.9913836        162.3848
1.988                   0.988614        160.9045
1.992                  0.9860117        159.5561
1.996                  0.9842974        158.3105
2                       0.983904        157.1277
2.004                  0.9849442        155.9641
2.008                  0.9872305        154.7808
2.012                  0.9903458        153.5495
2.016                   0.993745        152.2565
2.02                   0.9968668        150.9029
2.024                  0.9992371        149.5032
2.028                   1.000543        148.0804
2.032                   1.000678        146.6621
2.036                  0.9997441        145.2749
2.04                   0.9980243        143.9401
2.044                   0.995925        142.6704
2.048                  0.9938983        141.4677
2.052                  0.9923595        140.3228
2.056                  0.9916132        139.2177
2.06                   0.9917993        138.1288
2.064                  0.9928738         137.032
2.068                  0.9946232        135.9068
2.072                   0.996711        134.7404
2.076                  0.9987458        133.5298
2.08                    1.000356        132.2816
2.084                   1.001255        131.0106
2.088                   1.001295        129.7366
2.092                   1.000488        128.4811
2.096                  0.9990024        127.2631
2.1                    0.9971326        126.0962
2.104                  0.9952426        124.9853
2.108                  0.9937003        123.9263
2.112                  0.9928078        122.9064
2.116                   0.992744        121.9062
2.12                   0.9935298         120.904
2.124                  0.9950229        119.8794
2.128                  0.9969462        118.8176
2.132                  0.9989397         117.712
2.136                   1.000627        116.5656
2.14                    1.001687        115.3898
2.144                    1.00191        114.2028
2.148                   1.001239        113.0262
2.152                  0.9997783        111.8809
2.156                  0.9977827        110.7841
2.16                   0.9956102        109.7453
2.164                  0.9936615        108.7646
2.168                   0.992305        107.8325
2.172                  0.9918074        106.9307
2.176                  0.9922797        106.0359
2.18                    0.993652        105.1239
2.184                  0.9956832        104.1743
2.188                  0.9980035        103.1746
2.192                   1.000181        102.1222
2.196                     1.0018        101.0254
2.2                     1.002537        99.90132
2.204                   1.002219        98.77353
2.208                    1.00086        97.66775
2.212                  0.9986611        96.60765
2.216                  0.9959863        95.61057
2.22                   0.9932992        94.68396
2.224                  0.9910849        93.82348
2.228                  0.9897598        93.01303
2.232                  0.9895904        92.22715
2.236                  0.9906366        91.43551
2.24                   0.9927325         90.6087
2.244                   0.995511        89.72392
2.248                  0.9984675        88.76929
2.252                   1.001048        87.74619
2.256                    1.00275        86.66896
2.26                     1.00321        85.56254
2.264                   1.002273        84.45851
2.268                   1.000025        83.38993
2.272                  0.9967926        82.38591
2.276                   0.993095        81.46627
2.28                   0.9895627        80.63726
2.284                    0.98683        79.88917
2.288                  0.9854157        79.19685
2.292                  0.9856178        78.52346
2.296                  0.9874452        77.82706
2.3                    0.9906025        77.06876
2.304                  0.9945342        76.22018
2.308                  0.9985194        75.26898
2.312                   1.001797        74.22108
2.316                     1.0037        73.09967
2.32                    1.003769        71.94146
2.324                   1.001846        70.79126
2.328                  0.9981083        69.69507
2.332                  0.9930672        68.69273
2.336                  0.9874977        67.81054
2.34                    0.982326        67.05482
2.344                  0.9784698         66.4083
2.348                  0.9766643        65.83049
2.352                  0.9773049        65.26348