! TOUCHSTONE file generated by CST MICROWAVE STUDIO
! Date and time: Tue Jun  7 20:03:50 2022
! Project name: AppElm_antenne_patch_FR4.cst
! Parameters = {L=56.25; W=58.5; e=0.035; h=1.6; lambda=0.190476; ls=120; w0=1.6; w1=0.533333; ws=120; y0=20; y1=23.8095}
! Header version: 2018
! Port assignment regex: !\s*Touchstone port\s*([0-9]+)\s*=\s*(CST MWS port|CST DS port)\s*([0-9]+|Zmin|Zmax)\s*\(\"(.*)\"\)(\s*mode\s*([0-9]+))?.*
! Touchstone port assignment:
! Touchstone port 1 = CST MWS port 1 ("")
# GHz S MA R 50
0                      0.9685739              -0
0.004                  0.9703385       -11.89827
0.008                  0.9753863       -23.64762
0.012                  0.9830228       -35.11154
0.016                  0.9922233       -46.17497
0.02                    1.001796       -56.74825
0.024                   1.010556       -66.76628
0.028                   1.017479       -76.18472
0.032                   1.021819       -84.97517
0.036                   1.023185       -93.12109
0.04                    1.021569       -100.6154
0.044                    1.01734         -107.46
0.048                   1.011181       -113.6674
0.052                   1.004009       -119.2627
0.056                  0.9968469       -124.2873
0.06                   0.9906861       -128.7992
0.064                  0.9863409       -132.8729
0.068                  0.9843293       -136.5937
0.072                  0.9847982       -140.0508
0.076                  0.9875146       -143.3268
0.08                   0.9919198       -146.4898
0.084                  0.9972367        -149.587
0.088                   1.002605       -152.6427
0.092                   1.007214       -155.6599
0.096                    1.01042       -158.6246
0.1                     1.011826       -161.5113
0.104                   1.011321        -164.289
0.108                   1.009084       -166.9273
0.112                   1.005546        -169.402
0.116                   1.001315       -171.6995
0.12                    0.997088       -173.8201
0.124                  0.9935343       -175.7793
0.128                  0.9911946       -177.6062
0.132                   0.990394       -179.3397
0.136                  0.9911945        178.9772
0.14                   0.9933939        177.3048
0.144                   0.996571        175.6122
0.148                   1.000165        173.8818
0.152                   1.003575        172.1103
0.156                   1.006257        170.3081
0.16                    1.007809        168.4961
0.164                   1.008024        166.7016
0.168                   1.006915        164.9536
0.172                   1.004707        163.2781
0.176                   1.001794        161.6939
0.18                   0.9986758        160.2096
0.184                  0.9958747         158.822
0.188                  0.9938491        157.5161
0.192                  0.9929166        156.2674
0.196                  0.9932035        155.0463
0.2                    0.9946268         153.823
0.204                  0.9969141        152.5728
0.208                  0.9996558        151.2797
0.212                    1.00238        149.9391
0.216                   1.004632        148.5574
0.22                    1.006049        147.1503
0.224                   1.006417        145.7401
0.228                   1.005698        144.3515
0.232                   1.004034        143.0079
0.236                   1.001724        141.7273
0.24                   0.9991664        140.5198
0.244                  0.9967984        139.3854
0.248                  0.9950189         138.314
0.252                  0.9941222         137.287
0.256                   0.994246        136.2805
0.26                   0.9953512        135.2695
0.264                  0.9972303        134.2324
0.268                  0.9995473        133.1547
0.272                   1.001899         132.031
0.276                   1.003885         130.866
0.28                    1.005175        129.6727
0.284                   1.005561        128.4703
0.288                   1.004991        127.2808
0.292                   1.003574        126.1256
0.296                   1.001561        125.0216
0.3                    0.9993012        123.9787
0.304                  0.9971858         122.998
0.308                  0.9955779        122.0713
0.312                  0.9947513        121.1826
0.316                  0.9948416        120.3106
0.32                   0.9958235        119.4329
0.324                  0.9975172        118.5296
0.328                  0.9996211        117.5873
0.332                   1.001767        116.6006
0.336                   1.003584        115.5736
0.34                    1.004765        114.5181
0.344                   1.005111        113.4519
0.348                   1.004569        112.3956
0.352                    1.00324        111.3692
0.356                   1.001354         110.389
0.36                   0.9992409        109.4642
0.364                  0.9972679         108.596
0.368                  0.9957785        107.7769
0.372                  0.9950311        106.9916
0.376                  0.9951538          106.22
0.38                   0.9961206        105.4409
0.384                  0.9977574        104.6353
0.388                  0.9997737        103.7907
0.392                   1.001815        102.9022
0.396                   1.003527        101.9738
0.4                     1.004612        101.0174
0.404                   1.004886        100.0503
0.408                   1.004303        99.09267
0.412                   1.002965         98.1639
0.416                   1.001105        97.27944
0.42                    0.999048        96.44824
0.424                  0.9971535        95.67088
0.428                  0.9957553        94.93939
0.432                  0.9951006        94.23847
0.436                  0.9953055        93.54814
0.44                    0.996333        92.84737
0.444                  0.9980007        92.11803
0.448                   1.000013        91.34802
0.452                   1.002016        90.53343
0.456                   1.003658        89.67893
0.46                    1.004651        88.79695
0.464                   1.004822        87.90528
0.468                    1.00414        87.02421
0.472                   1.002721        86.17298
0.476                   1.000812        85.36662
0.48                   0.9987453        84.61332
0.484                  0.9968863        83.91276
0.488                   0.995565        83.25594
0.492                  0.9950188        82.62667
0.496                  0.9953474        82.00435
0.5                    0.9964947        81.36779
0.504                  0.9982582        80.69909
0.508                   1.000325        79.98692
0.512                   1.002331         79.2284
0.516                   1.003919        78.42957
0.52                    1.004811        77.60399
0.524                   1.004844        76.77057
0.528                   1.004011        75.95017
0.532                    1.00245        75.16225
0.536                   1.000433        74.42148
0.54                   0.9983141        73.73507
0.544                  0.9964682        73.10134
0.548                  0.9952275        72.50968
0.552                  0.9948185        71.94234
0.556                  0.9953198        71.37752
0.56                   0.9966471         70.7934
0.564                  0.9985664        70.17228
0.568                   1.000738        69.50368
0.572                   1.002776        68.78621
0.576                   1.004318         68.0277
0.58                    1.005088        67.24355
0.584                   1.004945        66.45422
0.588                   1.003906         65.6817
0.592                   1.002146        64.94583
0.596                  0.9999702        64.26083
0.6                    0.9977622        63.63273
0.604                   0.995916        63.05798
0.608                  0.9947673        62.52375
0.612                  0.9945294         62.0101
0.616                   0.995253        61.49352
0.62                   0.9968152        60.95132
0.624                  0.9989411        60.36593
0.628                   1.001253        59.72806
0.632                   1.003337        59.03823
0.636                   1.004822         58.3066
0.64                    1.005437        57.55107
0.644                   1.005064        56.79415
0.648                   1.003758        56.05925
0.652                    1.00174         55.3667
0.656                  0.9993593         54.7302
0.66                    0.997038        54.15417
0.664                  0.9951943        53.63258
0.668                  0.9941671        53.14969
0.672                  0.9941524        52.68273
0.676                  0.9951641          52.206
0.68                   0.9970295        51.69574
0.684                  0.9994194        51.13463
0.688                   1.001908        50.51491
0.692                   1.004051        49.83962
0.696                   1.005459        49.12199
0.7                     1.005875        48.38292
0.704                    1.00521        47.64762
0.708                   1.003568         46.9412
0.712                   1.001226        46.28458
0.716                  0.9985928        45.69067
0.72                   0.9961363        45.16173
0.724                  0.9943035        44.68859
0.728                  0.9934362        44.25182
0.732                  0.9937059        43.82506
0.736                  0.9950779        43.37997
0.74                   0.9973161        42.89163
0.744                   1.000024        42.34318
0.748                   1.002718        41.72894
0.752                   1.004912        41.05521
0.756                   1.006207        40.33899
0.76                    1.006357        39.60506
0.764                   1.005317        38.88174
0.768                   1.003251        38.19624
0.772                    1.00051        37.57001
0.776                  0.9975737        37.01478
0.78                   0.9949678        36.53003
0.784                  0.9931717        36.10245
0.788                  0.9925273        35.70788
0.792                  0.9931709        35.31558
0.796                  0.9950048        34.89405
0.8                     0.997711        34.41708
0.804                   1.000809         33.8687
0.808                   1.003744        33.24603
0.812                   1.005984        32.55955
0.816                   1.007116        31.83108
0.82                    1.006917        31.09009
0.824                   1.005396        30.36875
0.828                   1.002798         29.6967
0.832                  0.9995645        29.09591
0.836                  0.9962637        28.57647
0.84                   0.9934926         28.1341
0.844                  0.9917676        27.75015
0.848                  0.9914257        27.39444
0.852                  0.9925552        27.03078
0.856                  0.9949742        26.62389
0.86                   0.9982608        26.14629
0.864                   1.001829        25.58344
0.868                   1.005036        24.93626
0.872                   1.007297        24.22062
0.876                   1.008185        23.46445
0.88                    1.007513        22.70305
0.884                   1.005361        21.97336
0.888                   1.002078        21.30794
0.892                  0.9982231         20.7292
0.896                  0.9944784        20.24486
0.9                    0.9915281        19.84559
0.904                  0.9899327        19.50563
0.908                  0.9900171        19.18697
0.912                  0.9918021        18.84641
0.916                  0.9949929        18.44407
0.92                   0.9990308        17.95118
0.924                   1.003194        17.35544
0.928                    1.00673         16.6629
0.932                   1.008986        15.89654
0.936                   1.009527         15.0922
0.94                     1.00821        14.29268
0.944                   1.005214        13.54106
0.948                   1.001026        12.87358
0.952                  0.9963612        12.31312
0.956                  0.9920502        11.86414
0.96                   0.9888922        11.51036
0.964                  0.9875017        11.21634
0.968                  0.9881838        10.93347
0.972                  0.9908634        10.60925
0.976                  0.9950909        10.19787
0.98                    1.000122        9.669248
0.984                   1.005054        9.014407
0.988                   1.008988        8.246569
0.992                   1.011186        7.398327
0.996                   1.011201        6.516086
1                       1.008955        5.652815
1.004                   1.004764        4.859908
1.008                  0.9993042        4.178806
1.012                   0.993509        3.633163
1.016                  0.9884192        3.222871
1.02                    0.984996        2.921694
1.024                  0.9839313        2.680175
1.028                  0.9854994        2.434252
1.032                  0.9894859        2.118027
1.036                  0.9952166        1.677344
1.04                     1.00168        1.080433
1.044                   1.007713       0.3232754
1.048                   1.012206      -0.5706785
1.052                   1.014294       -1.555206
1.056                   1.013508       -2.568804
1.06                    1.009858       -3.543725
1.064                   1.003855       -4.415918
1.068                  0.9964517        -5.13544
1.072                  0.9889118        -5.67651
1.076                  0.9826024       -6.045403
1.08                   0.9787452       -6.283399
1.084                  0.9781654       -6.462109
1.088                  0.9811001       -6.670463
1.092                  0.9871232       -6.996208
1.096                  0.9952103       -7.507214
1.1                     1.003928       -8.238236
1.104                   1.011694       -9.186075
1.108                   1.017053       -10.31196
1.112                   1.018917       -11.54902
1.116                   1.016751        -12.8122
1.12                    1.010674       -14.00961
1.124                   1.001483       -15.05468
1.128                  0.9905835       -15.88021
1.132                  0.9798022       -16.45281
1.136                  0.9711082       -16.78603
1.14                   0.9662423       -16.94635
1.144                  0.9663369       -17.04666
1.148                  0.9716248       -17.22499
1.152                  0.9813356       -17.61388
1.156                  0.9938191       -18.31098
1.16                    1.006853       -19.36103
1.164                    1.01804         -20.752
1.168                   1.025202       -22.42205
1.172                   1.026713       -24.27144
1.176                   1.021747       -26.17525
1.18                    1.010442       -27.99597
1.184                  0.9939743       -29.59759
1.188                  0.9745189       -30.86444
1.192                  0.9550647       -31.72709
1.196                  0.9390229       -32.19367
1.2                    0.9296129       -32.37606
1.204                  0.9291037        -32.4917
1.208                  0.9381354       -32.82636
1.212                  0.9554023       -33.66622
1.216                   0.977837       -35.23195
1.22                     1.00118       -37.64597
1.224                   1.020679       -40.93811
1.228                   1.031688       -45.07334
1.232                   1.030099       -49.98283
1.236                   1.012601       -55.58857
1.24                   0.9768185       -61.82041
1.244                   0.921382       -68.62838
1.248                  0.8459378       -75.99564
1.252                  0.7511375       -83.96064
1.256                  0.6386232       -92.66729
1.26                    0.511065       -102.5035
1.264                  0.3724948       -114.5706
1.268                  0.2303566       -132.8793
1.272                  0.1144655        -179.047
1.276                  0.1521452        101.5466
1.28                   0.2867533        71.96627
1.284                  0.4292132        57.04632
1.288                  0.5644902        46.05546
1.292                  0.6869941        36.69665
1.296                  0.7932536        28.25635
1.3                    0.8809478        20.47177
1.304                  0.9487532        13.25094
1.308                  0.9963438        6.582313
1.312                   1.024417       0.4996515
1.316                   1.034707       -4.934608
1.32                    1.029962        -9.64089
1.324                   1.013867       -13.53587
1.328                  0.9908731       -16.55254
1.332                  0.9658816       -18.66945
1.336                  0.9437385       -19.94535
1.34                   0.9285397       -20.54493
1.344                  0.9228922       -20.73286
1.348                  0.9274041       -20.82332
1.352                  0.9406705       -21.10172
1.356                  0.9597837       -21.75918
1.36                   0.9811317       -22.86902
1.364                   1.001173       -24.40225
1.368                   1.016999        -26.2608
1.372                    1.02666       -28.30965
1.376                   1.029294       -30.40095
1.38                     1.02512       -32.39079
1.384                    1.01534       -34.15232
1.388                    1.00194       -35.58884
1.392                  0.9874071       -36.64773
1.396                  0.9743544       -37.33352
1.4                    0.9650782       -37.71399
1.404                  0.9611325       -37.91239
1.408                  0.9630301       -38.08282
1.412                  0.9701727       -38.37486
1.416                  0.9810371        -38.9005
1.42                    0.993547       -39.71499
1.424                   1.005504       -40.81501
1.428                   1.014975       -42.14922
1.432                    1.02057       -43.63402
1.436                     1.0216       -45.16946
1.44                    1.018136       -46.65341
1.444                   1.010953       -47.99414
1.448                   1.001408       -49.12221
1.452                  0.9912228       -50.00132
1.456                  0.9822036       -50.63668
1.46                   0.9759289       -51.07717
1.464                  0.9734547       -51.40837
1.468                  0.9751162       -51.73553
1.472                  0.9804789       -52.16089
1.476                  0.9884569       -52.76218
1.48                   0.9975571       -53.57919
1.484                   1.006176       -54.61073
1.488                   1.012883       -55.81989
1.492                   1.016641       -57.14421
1.496                   1.016939       -58.50719
1.5                     1.013849       -59.82981
1.504                   1.007995       -61.04135
1.508                   1.000444       -62.08931
1.512                  0.9925402       -62.94821
1.516                  0.9856749       -63.62535
1.52                   0.9810463       -64.16136
1.524                  0.9794358        -64.6239
1.528                  0.9810633       -65.09436
1.532                  0.9855554       -65.65097
1.536                  0.9920378       -66.35296
1.54                   0.9993199       -67.23053
1.544                   1.006126        -68.2819
1.548                   1.011317       -69.47688
1.552                    1.01407       -70.76429
1.556                   1.013994       -72.08129
1.56                    1.011174       -73.36296
1.564                   1.006147       -74.55155
1.568                  0.9998109       -75.60516
1.572                  0.9932805       -76.50485
1.576                   0.987698       -77.25891
1.58                   0.9840334       -77.90274
1.584                  0.9829052       -78.49308
1.588                   0.984467       -79.09702
1.592                  0.9883862       -79.77856
1.596                  0.9939201       -80.58591
1.6                     1.000067       -81.54345
1.604                   1.005756       -82.64905
1.608                   1.010032       -83.87675
1.612                   1.012209       -85.18275
1.616                   1.011967       -86.51315
1.62                    1.009394       -87.81235
1.624                   1.004963       -89.03114
1.628                   0.999454       -90.13433
1.632                  0.9938273       -91.10667
1.636                  0.9890609       -91.95643
1.64                   0.9859792       -92.71485
1.644                  0.9851025       -93.43101
1.648                  0.9865523       -94.16254
1.652                   0.990034        -94.9642
1.656                   0.994901        -95.8774
1.66                    1.000283       -96.92311
1.664                   1.005247       -98.09953
1.668                   1.008961       -99.38404
1.672                   1.010822       -100.7382
1.676                    1.01055       -102.1146
1.68                    1.008223       -103.4639
1.684                   1.004258       -104.7428
1.688                  0.9993445         -105.92
1.692                  0.9943316       -106.9821
1.696                  0.9900844       -107.9366
1.7                    0.9873337       -108.8108
1.704                  0.9865441       -109.6482
1.708                  0.9878296       -110.4995
1.712                   0.990936       -111.4133
1.716                   0.995295        -112.427
1.72                    1.000134       -113.5599
1.724                   1.004619        -114.811
1.728                   1.007996       -116.1608
1.732                   1.009714       -117.5752
1.736                   1.009508       -119.0114
1.74                    1.007434       -120.4248
1.744                   1.003858       -121.7758
1.748                  0.9993951       -123.0353
1.752                  0.9948096       -124.1905
1.756                   0.990888       -125.2471
1.76                   0.9883028       -126.2293
1.764                  0.9874912       -127.1756
1.768                  0.9885768       -128.1319
1.772                  0.9913487       -129.1427
1.776                  0.9953056       -130.2428
1.78                   0.9997513       -131.4512
1.784                   1.003921       -132.7684
1.788                   1.007113       -134.1776
1.792                   1.008804       -135.6483
1.796                   1.008726       -137.1415
1.8                     1.006907       -138.6158
1.804                   1.003661       -140.0337
1.808                  0.9995426       -141.3674
1.812                  0.9952515       -142.6036
1.816                  0.9915201       -143.7459
1.82                   0.9889862       -144.8154
1.824                  0.9880795       -145.8468
1.828                  0.9889442       -146.8823
1.832                  0.9914139       -147.9637
1.836                  0.9950452       -149.1246
1.84                    0.999201       -150.3843
1.844                   1.003167       -151.7451
1.848                   1.006275        -153.193
1.852                   1.008008       -154.7004
1.856                   1.008087       -156.2311
1.86                    1.006508       -157.7458
1.864                    1.00354       -159.2085
1.868                  0.9996847       -160.5916
1.872                  0.9955949       -161.8808
1.876                  0.9919664       -163.0778
1.88                   0.9894191       -164.2008
1.884                  0.9883877       -165.2814
1.888                  0.9890417       -166.3593
1.892                  0.9912556       -167.4746
1.896                  0.9946332       -168.6606
1.9                    0.9985828       -169.9374
1.904                   1.002423       -171.3092
1.908                   1.005503       -172.7641
1.912                   1.007305        -174.277
1.916                   1.007532       -175.8137
1.92                    1.006149       -177.3363
1.924                   1.003387       -178.8094
1.928                  0.9997123        179.7949
1.932                  0.9957428        178.4919
1.936                  0.9921544        177.2818
1.94                   0.9895621        176.1484
1.944                  0.9884107        175.0623
1.948                  0.9888944        173.9852
1.952                  0.9909198        172.8777
1.956                  0.9941252        171.7066
1.96                   0.9979463        170.4505
1.964                    1.00172        169.1038
1.968                     1.0048        167.6767
1.972                   1.006661        166.1927
1.976                    1.00699         164.685
1.98                    1.005727        163.1907
1.984                   1.003081        161.7452
1.988                  0.9994927         160.377
1.992                  0.9955692        159.1023
1.996                  0.9919795        157.9222
2                      0.9893425        156.8221
2.004                  0.9881159         155.773
2.008                  0.9885108        154.7374
2.012                  0.9904519        153.6756
2.016                  0.9935912        152.5537
2.02                   0.9973727        151.3497
2.024                   1.001133        150.0569
2.028                   1.004218        148.6847
2.032                   1.006094        147.2564
2.036                   1.006433        145.8051
2.04                    1.005168        144.3681
2.044                   1.002499        142.9815
2.048                   0.998872        141.6743
2.052                  0.9948982        140.4633
2.056                  0.9912599        139.3498
2.06                   0.9885897        138.3189
2.064                  0.9873564        137.3412
2.068                  0.9877762        136.3779
2.072                  0.9897711        135.3883
2.076                  0.9929805        134.3377
2.08                   0.9968297        133.2034
2.084                   1.000634        131.9788
2.088                   1.003719         130.674
2.092                   1.005537        129.3135
2.096                   1.005758        127.9316
2.1                     1.004323        126.5673
2.104                   1.001455        125.2578
2.108                  0.9976275        124.0328
2.112                  0.9934898         122.909
2.116                   0.989757        121.8867
2.12                   0.9870861        120.9489
2.124                  0.9859532        120.0634
2.128                   0.986562        119.1888
2.132                  0.9888009        118.2821
2.136                  0.9922617        117.3071
2.14                   0.9963151        116.2414
2.144                   1.000225        115.0798
2.148                   1.003283        113.8351
2.152                   1.004924        112.5348
2.156                   1.004827        111.2169
2.16                     1.00297        109.9233
2.164                  0.9996331        108.6935
2.168                  0.9953629        107.5579
2.172                  0.9908831        106.5323
2.176                  0.9869734        105.6142
2.18                   0.9843298        104.7818
2.184                   0.983431        103.9974
2.188                  0.9844417        103.2141
2.192                  0.9871748        102.3848
2.196                  0.9911225        101.4718
2.2                    0.9955498        100.4534
2.204                    0.99963        99.32824
2.208                   1.002591        98.11418
2.212                   1.003852        96.84521
2.216                   1.003121        95.56552
2.22                    1.000448        94.32254
2.224                  0.9962274        93.15945
2.228                  0.9911403        92.10765
2.232                  0.9860468         91.1807
2.236                  0.9818391        90.37008
2.24                   0.9792753        89.64526
2.244                  0.9788272        88.95798
2.248                  0.9805773        88.25149
2.252                  0.9841911        87.47171
2.256                  0.9889737        86.57834
2.26                   0.9939975        85.55234
2.264                  0.9982727        84.39894
2.268                   1.000922        83.14603
2.272                   1.001336        81.83904
2.276                  0.9992788        80.53365
2.28                   0.9949416        79.28725
2.284                  0.9889276         78.1498
2.288                  0.9821704        77.15473
2.292                  0.9757871        76.31101
2.296                   0.970881         75.5985
2.3                    0.9683254        74.96874
2.304                  0.9685714        74.35235
2.308                  0.9715321        73.67255
2.312                  0.9765745        72.86113
2.316                   0.982627        71.87248
2.32                   0.9883731        70.69193
2.324                  0.9924858        69.33736
2.328                   0.993859        67.85534
2.332                  0.9917986        66.31344
2.336                  0.9861538        64.79054
2.34                   0.9773749        63.36564
2.344                  0.9664849        62.10498
2.348                  0.9549536        61.04821
2.352                  0.9444713        60.19484