! TOUCHSTONE file generated by CST MICROWAVE STUDIO
! Date and time: Tue Jun  7 20:03:42 2022
! Project name: AppElm_antenne_patch_FR4.cst
! Parameters = {L=38.25; W=58.5; e=0.035; h=1.6; lambda=0.190476; ls=120; w0=1.6; w1=0.533333; ws=120; y0=20; y1=23.8095}
! Header version: 2018
! Port assignment regex: !\s*Touchstone port\s*([0-9]+)\s*=\s*(CST MWS port|CST DS port)\s*([0-9]+|Zmin|Zmax)\s*\(\"(.*)\"\)(\s*mode\s*([0-9]+))?.*
! Touchstone port assignment:
! Touchstone port 1 = CST MWS port 1 ("")
# GHz S MA R 50
0                      0.9953659              -0
0.004                  0.9956415        -8.63726
0.008                  0.9964319       -17.21693
0.012                  0.9976315       -25.68346
0.016                  0.9990814       -33.98512
0.02                    1.000592       -42.07549
0.024                   1.001967       -49.91446
0.028                   1.003035       -57.46886
0.032                   1.003666       -64.71273
0.036                   1.003791       -71.62733
0.04                    1.003409       -78.20111
0.044                   1.002589       -84.42954
0.048                   1.001453       -90.31486
0.052                   1.000165       -95.86581
0.056                  0.9989038       -101.0969
0.06                   0.9978396       -106.0278
0.064                  0.9971108       -110.6819
0.068                  0.9968036        -115.085
0.072                  0.9969426       -119.2636
0.076                  0.9974885       -123.2433
0.08                   0.9983455       -127.0469
0.084                  0.9993779       -130.6938
0.088                    1.00043       -134.1988
0.092                   1.001351       -137.5727
0.096                   1.002015       -140.8218
0.1                     1.002337       -143.9498
0.104                   1.002289       -146.9582
0.108                   1.001893       -149.8477
0.112                   1.001227       -152.6197
0.116                   1.000402        -155.277
0.12                   0.9995503       -157.8247
0.124                  0.9988037       -160.2703
0.128                  0.9982731       -162.6233
0.132                  0.9980327       -164.8952
0.136                  0.9981098       -167.0976
0.14                   0.9984814       -169.2423
0.144                  0.9990798       -171.3389
0.148                  0.9998048        -173.395
0.152                   1.000539       -175.4154
0.156                   1.001169       -177.4017
0.16                    1.001599       -179.3529
0.164                   1.001769        178.7337
0.168                    1.00166        176.8621
0.172                   1.001298         175.036
0.176                   1.000748        173.2585
0.18                    1.000102        171.5307
0.184                  0.9994661        169.8518
0.188                  0.9989408        168.2183
0.192                  0.9986076        166.6251
0.196                  0.9985146        165.0656
0.2                    0.9986705        163.5326
0.204                  0.9990436        162.0193
0.208                  0.9995678        160.5204
0.212                   1.000154        159.0325
0.216                   1.000705        157.5543
0.22                    1.001132         156.087
0.224                   1.001368        154.6335
0.228                   1.001377         153.198
0.232                   1.001162        151.7851
0.236                   1.000763        150.3987
0.24                    1.000246        149.0417
0.244                  0.9996979        147.7152
0.248                  0.9992097        146.4181
0.252                  0.9988597        145.1473
0.256                  0.9987031        143.8984
0.26                    0.998762        142.6658
0.264                  0.9990229        141.4442
0.268                  0.9994389        140.2288
0.272                  0.9999385        139.0165
0.276                   1.000437        137.8059
0.28                    1.000851        136.5978
0.284                   1.001113        135.3947
0.288                   1.001181        134.2004
0.292                   1.001047        133.0194
0.296                   1.000735        131.8559
0.3                     1.000298        130.7131
0.304                  0.9998124        129.5928
0.308                  0.9993593        128.4948
0.312                  0.9990143        127.4173
0.316                  0.9988347        126.3565
0.32                   0.9988492        125.3079
0.324                  0.9990534        124.2666
0.328                  0.9994113        123.2283
0.332                  0.9998611        122.1899
0.336                   1.000326        121.1498
0.34                    1.000727        120.1086
0.344                   1.000998        119.0685
0.348                   1.001094         118.033
0.352                      1.001        117.0063
0.356                   1.000734        115.9925
0.36                    1.000341        114.9951
0.364                  0.9998909        114.0162
0.368                  0.9994592         113.056
0.372                    0.99912         112.113
0.376                  0.9989307        111.1841
0.38                   0.9989229        110.2652
0.384                  0.9990968        109.3516
0.388                  0.9994219        108.4392
0.392                  0.9998414         107.525
0.396                   1.000283        106.6075
0.4                     1.000671        105.6868
0.404                   1.000939         104.765
0.408                   1.001042        103.8456
0.412                   1.000962        102.9325
0.416                   1.000714          102.03
0.42                     1.00034        101.1415
0.424                  0.9999059         100.269
0.428                  0.9994856        99.41319
0.432                  0.9991513        98.57265
0.436                  0.9989606        97.74447
0.44                   0.9989458        96.92466
0.444                   0.999109        96.10882
0.448                   0.999421        95.29287
0.452                  0.9998275        94.47377
0.456                   1.000257        93.65002
0.46                    1.000636        92.82187
0.464                   1.000898        91.99131
0.468                   1.000998        91.16167
0.472                   1.000919        90.33701
0.476                   1.000673        89.52148
0.48                    1.000305        88.71851
0.484                  0.9998768        87.93028
0.488                  0.9994639        87.15724
0.492                  0.9991377        86.39812
0.496                   0.998955        85.65001
0.5                    0.9989474        84.90895
0.504                  0.9991163        84.17056
0.508                  0.9994322         83.4308
0.512                  0.9998396        82.68672
0.516                   1.000267        81.93684
0.52                    1.000641        81.18155
0.524                   1.000895        80.42293
0.528                   1.000984        79.66436
0.532                   1.000894           78.91
0.536                   1.000639        78.16398
0.54                    1.000265        77.42975
0.544                  0.9998346         76.7094
0.548                  0.9994251        76.00329
0.552                  0.9991076        75.31006
0.556                  0.9989381        74.62666
0.56                   0.9989465        73.94907
0.564                  0.9991316        73.27286
0.568                  0.9994608        72.59403
0.572                  0.9998766        71.90966
0.576                   1.000306         71.2185
0.58                    1.000673        70.52108
0.584                   1.000913        69.81965
0.588                   1.000983        69.11781
0.592                    1.00087        68.41983
0.596                   1.000594        67.72989
0.6                     1.000201        67.05137
0.604                  0.9997617        66.38629
0.608                  0.9993515        65.73483
0.612                  0.9990433        65.09535
0.616                  0.9988911        64.46463
0.62                   0.9989224        63.83847
0.624                  0.9991318        63.21234
0.628                  0.9994825        62.58224
0.632                  0.9999124        61.94542
0.636                   1.000346        61.30082
0.64                    1.000705        60.64922
0.644                   1.000926        59.99319
0.648                    1.00097        59.33656
0.652                   1.000826        58.68376
0.656                    1.00052        58.03905
0.66                    1.000105        57.40573
0.664                  0.9996523        56.78565
0.668                  0.9992425         56.1787
0.672                  0.9989478        55.58294
0.676                  0.9988207        54.99487
0.68                   0.9988846           54.41
0.684                  0.9991284        53.82373
0.688                  0.9995092        53.23208
0.692                  0.9999599        52.63245
0.696                     1.0004        52.02403
0.7                     1.000752        51.40803
0.704                   1.000952        50.78733
0.708                   1.000963        50.16608
0.712                   1.000783        49.54891
0.716                   1.000442        48.94014
0.72                   0.9999987        48.34301
0.724                  0.9995321        47.75905
0.728                  0.9991245        47.18786
0.732                  0.9988483        46.62708
0.736                  0.9987536        46.07283
0.74                   0.9988581        45.52036
0.744                   0.999144        44.96493
0.748                   0.999561        44.40261
0.752                   1.000035        43.83102
0.756                   1.000483        43.24972
0.76                    1.000823        42.66033
0.764                   1.000994        42.06617
0.768                   1.000965        41.47176
0.772                    1.00074        40.88194
0.776                   1.000356        40.30109
0.78                   0.9998804        39.73228
0.784                  0.9993976        39.17677
0.788                   0.998993        38.63368
0.792                  0.9987392        38.10021
0.796                  0.9986822        37.57203
0.8                    0.9988331        37.04411
0.804                  0.9991662        36.51155
0.808                  0.9996225        35.97052
0.812                   1.000121        35.41891
0.816                   1.000572        34.85673
0.82                    1.000895        34.28607
0.824                   1.001031        33.71079
0.828                   1.000954        33.13576
0.832                   1.000675        32.56608
0.836                   1.000242        32.00612
0.84                   0.9997308        31.45879
0.844                  0.9992317        30.92493
0.848                  0.9988333        30.40318
0.852                  0.9986076        29.89018
0.856                  0.9985955        29.38111
0.86                   0.9988006        28.87061
0.864                  0.9991873        28.35367
0.868                  0.9996872        27.82659
0.872                   1.000211        27.28761
0.876                   1.000665        26.73722
0.88                    1.000967        26.17812
0.884                   1.001061        25.61467
0.888                   1.000928        25.05222
0.892                    1.00059        24.49606
0.896                   1.000105        23.95056
0.9                    0.9995567        23.41837
0.904                  0.9990433        22.89987
0.908                  0.9986564        22.39311
0.912                   0.998466         21.8941
0.916                  0.9985074        21.39753
0.92                   0.9987749        20.89766
0.924                  0.9992219        20.38943
0.928                  0.9997692        19.86928
0.932                   1.000319        19.33587
0.936                   1.000773        18.79029
0.94                    1.001048        18.23587
0.944                   1.001094        17.67759
0.948                   1.000898        17.12122
0.952                   1.000494         16.5723
0.956                  0.9999517        16.03513
0.96                   0.9993655        15.51204
0.964                  0.9988398        15.00286
0.968                   0.998469        14.50499
0.972                  0.9983208        14.01376
0.976                  0.9984235        13.52328
0.98                   0.9987606        13.02748
0.984                  0.9992735        12.52121
0.988                   0.999871        12.00117
0.992                   1.000447         11.4665
0.996                   1.000897        10.91894
1                       1.001139        10.36254
1.004                   1.001127        9.802938
1.008                   1.000861        9.246363
1.012                   1.000385        8.698559
1.016                  0.9997803        8.163746
1.02                   0.9991544        7.643842
1.024                  0.9986184        7.138082
1.028                  0.9982689        6.643098
1.032                  0.9981702        6.153484
1.036                  0.9983425        5.662741
1.04                   0.9987569        5.164448
1.044                  0.9993411        4.653415
1.048                  0.9999918        4.126628
1.052                   1.000593        3.583794
1.056                   1.001035          3.0274
1.06                    1.001237        2.462278
1.064                   1.001161        1.894758
1.068                   1.000815         1.33157
1.072                   1.000258       0.7786551
1.076                  0.9995867       0.2400976
1.08                   0.9989187      -0.2826356
1.084                  0.9983734      -0.7910133
1.088                  0.9980493       -1.289235
1.092                  0.9980068       -1.783523
1.096                  0.9982561       -2.281025
1.1                    0.9987551        -2.78853
1.104                  0.9994165       -3.311241
1.108                   1.000123       -3.851835
1.112                   1.000748       -4.409942
1.116                   1.001178       -4.982313
1.12                    1.001334       -5.563152
1.124                   1.001183       -6.145439
1.128                   1.000747       -6.721942
1.132                   1.000101       -7.286462
1.136                  0.9993547       -7.835102
1.14                   0.9986408        -8.36691
1.144                   0.998086       -8.884144
1.148                  0.9977913       -9.391925
1.152                  0.9978119       -9.897376
1.156                  0.9981472       -10.40836
1.16                   0.9987404       -10.93205
1.164                  0.9994874       -11.47367
1.168                   1.000256       -12.03549
1.172                   1.000907       -12.61646
1.176                   1.001324       -13.21237
1.18                    1.001427       -13.81656
1.184                   1.001194       -14.42111
1.188                   1.000659       -15.01817
1.192                  0.9999132       -15.60139
1.196                  0.9990856       -16.16704
1.2                    0.9983217       -16.71472
1.204                  0.9977579       -17.24758
1.208                  0.9974972       -17.77177
1.212                  0.9975898       -18.29541
1.216                  0.9980232       -18.82717
1.22                   0.9987236       -19.37468
1.224                  0.9995688       -19.94317
1.228                   1.000409        -20.5345
1.232                   1.001093       -21.14683
1.236                   1.001498       -21.77495
1.24                    1.001544       -22.41113
1.244                   1.001219       -23.04651
1.248                   1.000573       -23.67256
1.252                  0.9997151       -24.28264
1.256                  0.9987928        -24.8732
1.26                   0.9979688       -25.44447
1.264                  0.9973904       -26.00054
1.268                  0.9971641       -26.54872
1.272                  0.9973344       -27.09829
1.276                  0.9978763       -27.65883
1.28                   0.9986975       -28.23854
1.284                  0.9996547       -28.84271
1.288                   1.000578       -29.47278
1.292                   1.001303       -30.12607
1.296                   1.001695       -30.79623
1.3                     1.001679       -31.47432
1.304                   1.001249       -32.15036
1.308                   1.000472         -32.815
1.312                   0.999479        -33.4612
1.316                  0.9984392       -34.08553
1.32                   0.9975353       -34.68884
1.324                  0.9969288        -35.2763
1.328                  0.9967314       -35.85652
1.332                  0.9969835       -36.44015
1.336                  0.9976463       -37.03791
1.34                   0.9986068       -37.65875
1.344                  0.9996977       -38.30813
1.348                   1.000726       -38.98711
1.352                   1.001507       -39.69208
1.356                   1.001896       -40.41547
1.36                    1.001816       -41.14688
1.364                   1.001268       -41.87499
1.368                    1.00034       -42.58937
1.372                  0.9991832       -43.28237
1.376                  0.9979965       -43.95055
1.38                   0.9969867       -44.59539
1.384                  0.9963341       -45.22319
1.388                  0.9961598       -45.84416
1.392                  0.9965016       -46.47059
1.396                  0.9973073       -47.11469
1.4                    0.9984406       -47.78646
1.404                  0.9997051       -48.49177
1.408                   1.000878       -49.23138
1.412                    1.00175       -50.00079
1.416                   1.002158       -50.79088
1.42                    1.002019       -51.58961
1.424                   1.001343       -52.38387
1.428                   1.000234       -53.16175
1.432                  0.9988739       -53.91463
1.436                  0.9974932       -54.63879
1.44                   0.9963321       -55.33624
1.444                  0.9955982       -56.01459
1.448                  0.9954283       -56.68588
1.452                  0.9958628       -57.36452
1.456                  0.9968357       -58.06478
1.46                   0.9981845       -58.79821
1.464                  0.9996773       -59.57152
1.468                   1.001052       -60.38536
1.472                   1.002063       -61.23426
1.476                   1.002521       -62.10746
1.48                    1.002329       -62.99066
1.484                   1.001499       -63.86842
1.488                   1.000157       -64.72665
1.492                  0.9985161       -65.55512
1.496                  0.9968519       -66.34934
1.5                      0.99545        -67.1116
1.504                  0.9945591       -67.85092
1.508                  0.9943447       -68.58163
1.512                  0.9948579       -69.32103
1.516                  0.9960221       -70.08633
1.52                   0.9976444       -70.89155
1.524                  0.9994472       -71.74495
1.528                   1.001114       -72.64757
1.532                   1.002346       -73.59306
1.536                   1.002908        -74.5686
1.54                    1.002679       -75.55698
1.544                   1.001663       -76.53941
1.548                   1.000005       -77.49848
1.552                  0.9979619       -78.42121
1.556                  0.9958662        -79.3014
1.56                   0.9940728       -80.14113
1.564                  0.9928959       -80.95085
1.568                   0.992553       -81.74792
1.572                  0.9931223       -82.55375
1.576                   0.994524       -83.39012
1.58                   0.9965301       -84.27517
1.584                  0.9988002       -85.22023
1.588                   1.000938       -86.22762
1.592                   1.002559       -87.29037
1.596                   1.003354       -88.39318
1.6                     1.003143        -89.5148
1.604                   1.001911       -90.63137
1.608                  0.9998138       -91.72008
1.612                  0.9971612       -92.76302
1.616                  0.9943723       -93.75042
1.62                   0.9919087       -94.68296
1.624                  0.9901972       -95.57236
1.628                   0.989553       -96.44007
1.632                  0.9901172       -97.31392
1.636                  0.9918253       -98.22332
1.64                   0.9944088         -99.194
1.644                  0.9974369       -100.2433
1.648                   1.000384       -101.3771
1.652                   1.002719       -102.5885
1.656                   1.003988       -103.8594
1.66                    1.003896       -105.1625
1.664                   1.002362       -106.4656
1.668                  0.9995338       -107.7363
1.672                  0.9957882       -108.9473
1.676                  0.9916763       -110.0808
1.68                   0.9878465       -111.1329
1.684                  0.9849394       -112.1155
1.688                  0.9834742       -113.0558
1.692                  0.9837479       -113.9929
1.696                  0.9857657       -114.9712
1.7                    0.9892221       -116.0323
1.704                  0.9935394       -117.2077
1.708                  0.9979531       -118.5131
1.712                   1.001632       -119.9455
1.716                   1.003809       -121.4836
1.72                    1.003903       -123.0911
1.724                   1.001621       -124.7205
1.728                  0.9970196       -126.3204
1.732                  0.9905263       -127.8415
1.736                    0.98291       -129.2453
1.74                   0.9751925       -130.5118
1.744                  0.9685072       -131.6469
1.748                  0.9639101       -132.6861
1.752                  0.9621718       -133.6939
1.756                  0.9635922        -134.755
1.76                   0.9678813       -135.9613
1.764                  0.9741371       -137.3952
1.768                  0.9809308       -139.1163
1.772                  0.9864703       -141.1525
1.776                  0.9888046       -143.4975
1.78                   0.9860341       -146.1126
1.784                  0.9764972       -148.9304
1.788                  0.9589297       -151.8575
1.792                  0.9325945       -154.7748
1.796                  0.8973911       -157.5358
1.8                    0.8539611        -159.961
1.804                  0.8037991       -161.8309
1.808                  0.7493845       -162.8821
1.812                  0.6943211       -162.8166
1.816                  0.6434177       -161.3508
1.82                   0.6024916       -158.3383
1.824                   0.577519       -153.9669
1.828                   0.572908       -148.8993
1.832                  0.5896196       -144.1124
1.836                  0.6246889       -140.4557
1.84                   0.6726263       -138.3296
1.844                  0.7273724       -137.7142
1.848                  0.7835649       -138.3673
1.852                  0.8369892        -139.988
1.856                  0.8845944       -142.2933
1.86                   0.9243735       -145.0429
1.864                  0.9552332       -148.0382
1.868                  0.9768813       -151.1161
1.872                  0.9897303       -154.1419
1.876                  0.9948002       -157.0063
1.88                   0.9936081       -159.6238
1.884                  0.9880305       -161.9358
1.888                  0.9801311       -163.9147
1.892                  0.9719518       -165.5683
1.896                  0.9652857       -166.9414
1.9                    0.9614604       -168.1108
1.904                   0.961181       -169.1745
1.908                  0.9644732        -170.234
1.912                  0.9707458       -171.3767
1.916                  0.9789555       -172.6621
1.92                   0.9878289       -174.1161
1.924                  0.9960902       -175.7323
1.928                   1.002654       -177.4778
1.932                   1.006763       -179.3025
1.936                   1.008064        178.8528
1.94                    1.006625        177.0475
1.944                   1.002899        175.3341
1.948                  0.9976518        173.7518
1.952                  0.9918344        172.3211
1.956                  0.9864472        171.0407
1.96                   0.9823823        169.8871
1.964                  0.9802858        168.8182
1.968                  0.9804577        167.7804
1.972                  0.9828149        166.7184
1.976                  0.9869198        165.5852
1.98                   0.9920738        164.3495
1.984                  0.9974435        162.9996
1.988                   1.002203        161.5438
1.992                   1.005658        160.0071
1.996                   1.007342        158.4263
2                       1.007077        156.8438
2.004                   1.004983        155.3022
2.008                   1.001456        153.8378
2.012                  0.9971017        152.4761
2.016                  0.9926467        151.2272
2.02                   0.9888205        150.0849
2.024                  0.9862415        149.0263
2.028                  0.9853154         148.016
2.032                    0.98617         147.012
2.036                  0.9886387        145.9732
2.04                   0.9922954        144.8666
2.044                  0.9965325        143.6729
2.048                   1.000668        142.3882
2.052                   1.004054        141.0243
2.056                   1.006179        139.6059
2.06                    1.006736        138.1659
2.064                   1.005668        136.7408
2.068                   1.003171        135.3654
2.072                  0.9996601        134.0679
2.076                  0.9957106        132.8653
2.08                   0.9919661        131.7609
2.084                  0.9890361        130.7427
2.088                  0.9873976        129.7859
2.092                   0.987313        128.8558
2.096                  0.9887864        127.9146
2.1                     0.991564        126.9278
2.104                  0.9951814        125.8704
2.108                  0.9990438        124.7304
2.112                   1.002525        123.5105
2.116                   1.005069        122.2269
2.12                    1.006273        120.9065
2.124                    1.00595        119.5821
2.128                    1.00415        118.2885
2.132                   1.001159        117.0562
2.136                  0.9974523        115.9081
2.14                   0.9936265        114.8547
2.144                  0.9903024        113.8924
2.148                  0.9880264        113.0033
2.152                   0.987176        112.1579
2.156                  0.9878935        111.3197
2.16                   0.9900596         110.452
2.164                  0.9933128        109.5241
2.168                   0.997113        108.5167
2.172                   1.000832        107.4249
2.176                   1.003855        106.2582
2.18                    1.005683        105.0389
2.184                   1.006004        103.7982
2.188                   1.004743        102.5715
2.192                   1.002078        101.3933
2.196                  0.9984139        100.2924
2.2                    0.9943258        99.28643
2.204                  0.9904709        98.37935
2.208                  0.9874836        97.55937
2.212                  0.9858677        96.80033
2.216                  0.9859055        96.06558
2.22                   0.9876035         95.3144
2.224                  0.9906875        94.50926
2.228                  0.9946469         93.6226
2.232                  0.9988211        92.64133
2.236                   1.002509        91.56869
2.24                    1.005083         90.4233
2.244                   1.006087        89.23584
2.248                    1.00531        88.04459
2.252                    1.00282        86.88977
2.256                  0.9989647        85.80779
2.26                   0.9943238        84.82554
2.264                  0.9896271        83.95536
2.268                  0.9856416          83.192
2.272                   0.983043        82.51196
2.276                  0.9822938        81.87646
2.28                   0.9835518        81.23787
2.284                  0.9866338        80.54813
2.288                  0.9910377        79.76775
2.292                  0.9960267        78.87274
2.296                    1.00075        77.85846
2.3                     1.004382        76.73978
2.304                   1.006254        75.54851
2.308                   1.005958        74.32853
2.312                   1.003421        73.12959
2.316                  0.9989242         72.0006
2.32                   0.9930786        70.98226
2.324                  0.9867502         70.1001
2.328                  0.9809357        69.35846
2.332                  0.9766017        68.73723
2.336                  0.9745125        68.19273
2.34                   0.9750777        67.66378
2.344                  0.9782555        67.08247
2.348                  0.9835389        66.38688
2.352                  0.9900296        65.53264