! TOUCHSTONE file generated by CST MICROWAVE STUDIO
! Date and time: Tue Jun  7 20:03:44 2022
! Project name: AppElm_antenne_patch_FR4.cst
! Parameters = {L=42.75; W=58.5; e=0.035; h=1.6; lambda=0.190476; ls=120; w0=1.6; w1=0.533333; ws=120; y0=20; y1=23.8095}
! Header version: 2018
! Port assignment regex: !\s*Touchstone port\s*([0-9]+)\s*=\s*(CST MWS port|CST DS port)\s*([0-9]+|Zmin|Zmax)\s*\(\"(.*)\"\)(\s*mode\s*([0-9]+))?.*
! Touchstone port assignment:
! Touchstone port 1 = CST MWS port 1 ("")
# GHz S MA R 50
0                      0.9901777              -0
0.004                  0.9907283       -9.483514
0.008                  0.9923096       -18.89202
0.012                    0.99472       -28.15378
0.016                  0.9976547       -37.20317
0.02                    1.000749       -45.98266
0.024                   1.003625       -54.44391
0.028                   1.005944       -62.54808
0.032                   1.007442       -70.26564
0.036                   1.007965       -77.57589
0.04                    1.007487       -84.46655
0.044                   1.006103        -90.9335
0.048                   1.004024       -96.98074
0.052                   1.001541       -102.6203
0.056                  0.9989904       -107.8722
0.06                   0.9967078       -112.7638
0.064                   0.994983       -117.3286
0.068                  0.9940216       -121.6046
0.072                   0.993918       -125.6314
0.076                  0.9946449       -129.4479
0.08                   0.9960613       -133.0888
0.084                  0.9979371       -136.5831
0.088                  0.9999876       -139.9521
0.092                   1.001918       -143.2092
0.096                   1.003461       -146.3605
0.1                      1.00442        -149.406
0.104                   1.004683       -152.3419
0.108                   1.004247       -155.1621
0.112                   1.003203        -157.861
0.116                    1.00173       -160.4354
0.12                    1.000062       -162.8859
0.124                  0.9984531       -165.2179
0.128                  0.9971425       -167.4417
0.132                  0.9963172       -169.5721
0.136                  0.9960854       -171.6265
0.14                   0.9964624       -173.6234
0.144                  0.9973704       -175.5796
0.148                  0.9986528       -177.5088
0.152                   1.000102       -179.4201
0.156                    1.00149        178.6828
0.16                    1.002607        176.8016
0.164                   1.003289        174.9423
0.168                   1.003445        173.1136
0.172                   1.003064        171.3257
0.176                    1.00222        169.5878
0.18                    1.001055         167.907
0.184                  0.9997594        166.2864
0.188                  0.9985383         164.725
0.192                  0.9975832        163.2171
0.196                   0.997039        161.7532
0.2                    0.9969838        160.3213
0.204                  0.9974155        158.9088
0.208                  0.9982552        157.5042
0.212                  0.9993597        156.0986
0.216                   1.000547        154.6875
0.22                    1.001625        153.2706
0.224                   1.002425        151.8519
0.228                   1.002821        150.4388
0.232                   1.002757        149.0406
0.236                   1.002252        147.6674
0.24                    1.001391        146.3275
0.244                   1.000319        145.0272
0.248                   0.999211        143.7684
0.252                  0.9982482        142.5495
0.256                  0.9975848        141.3644
0.26                   0.9973254        140.2043
0.264                  0.9975074        139.0586
0.268                   0.998095        137.9169
0.272                  0.9989867        136.7703
0.276                   1.000032        135.6132
0.28                    1.001057        134.4438
0.284                   1.001894        133.2645
0.288                   1.002407        132.0812
0.292                   1.002515        130.9022
0.296                   1.002204         129.737
0.3                     1.001528        128.5945
0.304                   1.000602        127.4819
0.308                    0.99958        126.4028
0.312                  0.9986326        125.3573
0.316                  0.9979166        124.3414
0.32                   0.9975499        123.3481
0.324                  0.9975915        122.3678
0.328                  0.9980313        121.3908
0.332                  0.9987932        120.4081
0.336                  0.9997472        119.4135
0.34                    1.000732        118.4043
0.344                   1.001583        117.3816
0.348                   1.002159        116.3503
0.352                   1.002364        115.3179
0.356                   1.002167        114.2936
0.36                    1.001602        113.2863
0.364                   1.000765        112.3036
0.368                   0.999798        111.3502
0.372                  0.9988643        110.4271
0.376                  0.9981216        109.5314
0.38                   0.9976954         108.657
0.384                  0.9976569        107.7952
0.388                  0.9980117        106.9364
0.392                  0.9986983        106.0716
0.396                  0.9995991        105.1943
0.4                      1.00056        104.3011
0.404                   1.001418        103.3924
0.408                   1.002029        102.4724
0.412                   1.002288        101.5484
0.416                   1.002154         100.629
0.42                    1.001649        99.72348
0.424                   1.000859        98.83953
0.428                  0.9999199        97.98234
0.432                  0.9989913        97.15358
0.436                  0.9982322        96.35097
0.44                   0.9977726        95.56882
0.444                  0.9976919        94.79876
0.448                  0.9980033        94.03132
0.452                  0.9986533         93.2575
0.456                  0.9995295        92.47036
0.46                    1.000482        91.66623
0.464                   1.001346        90.84521
0.468                   1.001974        90.01119
0.472                   1.002258        89.17112
0.476                    1.00215        88.33382
0.48                    1.001668        87.50848
0.484                   1.000893        86.70307
0.488                  0.9999584        85.92309
0.492                  0.9990253        85.17043
0.496                  0.9982542        84.44314
0.5                    0.9977789        83.73559
0.504                  0.9976822        83.03951
0.508                   0.997981        82.34534
0.512                  0.9986241        81.64395
0.516                  0.9994998        80.92824
0.52                    1.000456        80.19435
0.524                   1.001328        79.44232
0.528                   1.001963          78.676
0.532                   1.002252        77.90243
0.536                   1.002143        77.13055
0.54                    1.001654        76.36972
0.544                   1.000869        75.62814
0.548                  0.9999215        74.91138
0.552                  0.9989761        74.22143
0.556                  0.9981968        73.55631
0.56                     0.99772        72.91024
0.564                  0.9976296        72.27478
0.568                  0.9979422        71.64017
0.572                   0.998604        70.99709
0.576                  0.9994998        70.33835
0.58                    1.000473         69.6601
0.584                   1.001355        68.96245
0.588                    1.00199        68.24952
0.592                   1.002267        67.52864
0.596                   1.002137        66.80901
0.6                      1.00162        66.10028
0.604                   1.000804        65.41077
0.608                  0.9998293         64.7461
0.612                  0.9988663        64.10814
0.616                  0.9980832        63.49459
0.62                   0.9976179        62.89941
0.624                  0.9975534        62.31374
0.628                  0.9979027        61.72746
0.632                  0.9986055        61.13107
0.636                  0.9995394        60.51734
0.64                    1.000541        59.88254
0.644                   1.001434        59.22716
0.648                   1.002062        58.55571
0.652                   1.002314        57.87597
0.656                   1.002143        57.19761
0.66                    1.001576        56.53058
0.664                   1.000712        55.88336
0.668                  0.9996983        55.26147
0.672                  0.9987132        54.66649
0.676                  0.9979299        54.09568
0.68                   0.9974876        53.54242
0.684                  0.9974665        52.99727
0.688                  0.9978721        52.44974
0.692                  0.9986348        51.89008
0.696                   0.999621        51.31106
0.7                     1.000658        50.70927
0.704                   1.001563        50.08568
0.708                   1.002175        49.44543
0.712                   1.002386        48.79693
0.716                   1.002155        48.15044
0.72                     1.00152        47.51625
0.724                   1.000589        46.90297
0.728                  0.9995251        46.31593
0.732                  0.9985135        45.75626
0.736                  0.9977338        45.22057
0.74                   0.9973256        44.70148
0.744                  0.9973636        44.18886
0.748                  0.9978434        43.67169
0.752                  0.9986824        43.13997
0.756                  0.9997334         42.5866
0.76                    1.000811        42.00858
0.764                   1.001725        41.40754
0.768                   1.002312        40.78945
0.772                   1.002466        40.16353
0.776                   1.002156        39.54069
0.78                    1.001434        38.93164
0.784                   1.000421        38.34506
0.788                  0.9992961        37.78599
0.792                  0.9982555        37.25497
0.796                  0.9974846        36.74775
0.8                    0.9971224          36.256
0.804                  0.9972361        35.76878
0.808                  0.9978085        35.27443
0.812                  0.9987405        34.76274
0.816                  0.9998682        34.22678
0.82                    1.000992        33.66412
0.824                   1.001912        33.07725
0.828                   1.002464        32.47313
0.832                   1.002546        31.86194
0.836                   1.002139        31.25537
0.84                     1.00131        30.66456
0.844                   1.000202        30.09822
0.848                  0.9990069        29.56102
0.852                  0.9979364        29.05269
0.856                  0.9971817        28.56794
0.86                   0.9968797        28.09734
0.864                  0.9970878        27.62893
0.868                  0.9977728        27.15039
0.872                  0.9988156        26.65129
0.876                   1.000033        26.12497
0.88                    1.001208        25.56973
0.884                   1.002131         24.9891
0.888                   1.002637        24.39122
0.892                   1.002631        23.78738
0.896                   1.002108        23.19015
0.9                     1.001155        22.61116
0.904                  0.9999357        22.05909
0.908                  0.9986635        21.53809
0.912                  0.9975636        21.04692
0.916                  0.9968339        20.57906
0.92                   0.9966082        20.12374
0.924                  0.9969314        19.66787
0.928                  0.9977506        19.19838
0.932                  0.9989231        18.70464
0.936                   1.000242        18.18036
0.94                    1.001474        17.62473
0.944                   1.002397        17.04253
0.948                   1.002845        16.44328
0.952                   1.002732        15.83957
0.956                   1.002072        15.24495
0.96                    1.000974        14.67156
0.964                  0.9996269        14.12802
0.968                  0.9982679        13.61782
0.972                  0.9971383        13.13857
0.976                  0.9964427        12.68225
0.98                   0.9963101        12.23657
0.984                  0.9967705         11.7871
0.988                  0.9977471        11.31996
0.992                  0.9990699        10.82432
0.996                   1.000505         10.2944
1                       1.001798        9.730448
1.004                   1.002716        9.138732
1.008                   1.003091        8.530372
1.012                   1.002849        7.919461
1.016                   1.002025        7.320657
1.02                    1.000756        6.746676
1.024                  0.9992608        6.206021
1.028                  0.9978021        5.701383
1.032                  0.9966407        5.228975
1.036                  0.9959878        4.779033
1.04                   0.9959669        4.337451
1.044                  0.9965892        3.888298
1.048                    0.99775        3.416743
1.052                  0.9992469         2.91178
1.056                   1.000815        2.368232
1.06                    1.002176        1.787655
1.064                   1.003082        1.178028
1.068                   1.003367       0.5523699
1.072                    1.00297     -0.07349086
1.076                    1.00195      -0.6835893
1.08                    1.000478       -1.264569
1.084                  0.9988075       -1.808074
1.088                   0.997232       -2.312377
1.092                  0.9960339        -2.78292
1.096                  0.9954334       -3.231548
1.1                    0.9955462       -3.674506
1.104                   0.996361       -4.129522
1.108                  0.9977404       -4.612526
1.112                  0.9994432       -5.134708
1.116                   1.001168       -5.700493
1.12                    1.002607       -6.306851
1.124                   1.003498       -6.943697
1.128                   1.003674       -7.595796
1.132                    1.00309       -8.245249
1.136                   1.001835       -8.874533
1.14                    1.000119       -9.469509
1.144                  0.9982372       -10.02198
1.148                  0.9965208       -10.53137
1.152                   0.995279       -11.00508
1.156                  0.9947415       -11.45748
1.16                   0.9950157       -11.90741
1.164                  0.9960638       -12.37476
1.168                  0.9977085        -12.8768
1.172                  0.9996623         -13.425
1.176                   1.001579       -14.02293
1.18                    1.003116       -14.66567
1.184                   1.003991       -15.34072
1.188                   1.004035       -16.03013
1.192                   1.003224       -16.71347
1.196                   1.001683       -17.37128
1.2                    0.9996664        -17.9884
1.204                  0.9975223       -18.55674
1.208                  0.9956286       -19.07708
1.212                   0.994328       -19.55922
1.216                  0.9938643        -20.0206
1.22                   0.9943351       -20.48331
1.224                  0.9956716       -20.96997
1.228                  0.9976471       -21.49962
1.232                  0.9999169       -22.08412
1.236                   1.002079       -22.72603
1.24                    1.003745       -23.41826
1.244                   1.004606       -24.14525
1.248                   1.004493        -24.8857
1.252                     1.0034       -25.61596
1.256                   1.001495       -26.31403
1.26                   0.9990932        -26.9633
1.264                  0.9966069       -27.55571
1.268                  0.9944748       -28.09352
1.272                  0.9930848       -28.58954
1.276                  0.9927016       -29.06513
1.28                   0.9934142       -29.54656
1.284                  0.9951153       -30.06015
1.288                  0.9975171       -30.62732
1.292                   1.000201       -31.26063
1.296                   1.002691       -31.96156
1.3                     1.004538        -32.7203
1.304                   1.005396       -33.51748
1.308                   1.005086       -34.32741
1.312                   1.003627       -35.12218
1.316                    1.00124       -35.87623
1.32                   0.9983166       -36.57077
1.324                  0.9953541       -37.19737
1.328                  0.9928761       -37.76007
1.332                  0.9913353       -38.27543
1.336                  0.9910309       -38.77004
1.34                   0.9920457       -39.27596
1.344                  0.9942256        -39.8247
1.348                   0.997203       -40.44128
1.352                   1.000459       -41.13959
1.356                   1.003416       -41.91994
1.36                    1.005536       -42.76913
1.364                   1.006414       -43.66278
1.368                   1.005852       -44.56919
1.372                   1.003893       -45.45437
1.376                   1.000826       -46.28748
1.38                   0.9971442       -47.04612
1.384                  0.9934679       -47.72072
1.388                  0.9904443       -48.31723
1.392                   0.988629       -48.85717
1.396                  0.9883808       -49.37456
1.4                    0.9897858       -49.91001
1.404                  0.9926321       -50.50308
1.408                  0.9964415       -51.18465
1.412                   1.000551       -51.97126
1.416                   1.004227       -52.86222
1.42                    1.006793       -53.83995
1.424                   1.007746       -54.87298
1.428                   1.006841       -55.92091
1.432                   1.004143       -56.94042
1.436                   1.000027       -57.89205
1.44                   0.9951338       -58.74682
1.444                  0.9902723       -59.49216
1.448                  0.9862904       -60.13568
1.452                   0.983922       -60.70586
1.456                  0.9836436        -61.2482
1.46                   0.9855704       -61.81743
1.464                  0.9894188       -62.46705
1.468                  0.9945451       -63.23885
1.472                   1.000055       -64.15516
1.476                   1.004957       -65.21512
1.48                    1.008328       -66.39538
1.484                   1.009472       -67.65391
1.488                   1.008034       -68.93631
1.492                   1.004076       -70.18351
1.496                  0.9980859       -71.34012
1.5                    0.9909324       -72.36364
1.504                  0.9837474       -73.23305
1.508                  0.9777521       -73.95586
1.512                  0.9740409       -74.57063
1.516                  0.9733632       -75.14332
1.52                   0.9759501       -75.75634
1.524                  0.9814372        -76.4925
1.528                  0.9889043       -77.41854
1.532                  0.9970253       -78.57246
1.536                   1.004291       -79.95786
1.54                    1.009252       -81.54468
1.544                   1.010749       -83.27459
1.548                   1.008098       -85.06906
1.552                   1.001214       -86.83857
1.556                  0.9906798       -88.49333
1.56                   0.9777207       -89.95605
1.564                  0.9640973       -91.17696
1.568                  0.9518792       -92.15044
1.572                  0.9431079       -92.92828
1.576                  0.9393815       -93.62319
1.58                   0.9414528       -94.39545
1.584                  0.9489592       -95.42368
1.588                    0.96038       -96.86887
1.592                  0.9732285       -98.84577
1.596                  0.9844017       -101.4105
1.6                    0.9905716        -104.564
1.604                  0.9885347       -108.2633
1.608                    0.97548       -112.4351
1.612                  0.9491724       -116.9842
1.616                  0.9080704       -121.7973
1.62                   0.8513965       -126.7377
1.624                  0.7791809       -131.6301
1.628                  0.6923088        -136.224
1.632                  0.5926196       -140.1122
1.636                  0.4832087       -142.5304
1.64                   0.3694296       -141.8074
1.644                  0.2626041       -133.7822
1.648                  0.1929033       -109.9435
1.652                  0.2103309       -76.74188
1.656                  0.2990455       -59.59043
1.66                   0.4106176       -54.98016
1.664                  0.5239546       -55.73584
1.668                  0.6306423       -58.88227
1.672                  0.7263034       -63.17896
1.676                  0.8083047       -68.02613
1.68                   0.8751168       -73.08659
1.684                  0.9261176       -78.14194
1.688                  0.9615265       -83.03186
1.692                  0.9823683       -87.62672
1.696                  0.9904309       -91.81607
1.7                     0.988188       -95.50704
1.704                    0.97867        -98.6298
1.708                   0.965258       -101.1495
1.712                  0.9513833       -103.0809
1.716                  0.9401404       -104.5008
1.72                   0.9338672       -105.5479
1.724                  0.9337988       -106.4044
1.728                  0.9399196        -107.261
1.732                  0.9510803       -108.2776
1.736                  0.9653441       -109.5553
1.74                   0.9804348       -111.1289
1.744                  0.9941635       -112.9742
1.748                   1.004754       -115.0257
1.752                   1.011042       -117.1933
1.756                   1.012569       -119.3775
1.76                     1.00958       -121.4819
1.764                   1.002949       -123.4231
1.768                  0.9940385       -125.1408
1.772                  0.9844992        -126.606
1.776                  0.9760189       -127.8275
1.78                   0.9700546       -128.8528
1.784                   0.967586       -129.7615
1.788                  0.9689521       -130.6506
1.792                  0.9738134       -131.6145
1.796                  0.9812499       -132.7273
1.8                    0.9899624       -134.0301
1.804                  0.9985254       -135.5283
1.808                   1.005626       -137.1949
1.812                   1.010258        -138.979
1.816                   1.011849       -140.8155
1.82                    1.010315       -142.6347
1.824                   1.006051       -144.3717
1.828                  0.9998629       -145.9747
1.832                  0.9928384       -147.4121
1.836                  0.9861803       -148.6786
1.84                   0.9810105       -149.7969
1.844                  0.9781826        -150.815
1.848                  0.9781333       -151.7978
1.852                   0.980812       -152.8145
1.856                  0.9857055       -153.9259
1.86                   0.9919471       -155.1727
1.864                  0.9984835       -156.5702
1.868                    1.00426       -158.1082
1.872                   1.008388       -159.7545
1.876                   1.010275       -161.4622
1.88                    1.009696       -163.1766
1.884                   1.006818       -164.8435
1.888                   1.002168       -166.4163
1.892                  0.9965444       -167.8629
1.896                  0.9908985       -169.1711
1.9                     0.986177        -170.351
1.904                  0.9831654       -171.4345
1.908                  0.9823516       -172.4702
1.912                  0.9838414       -173.5142
1.916                  0.9873454       -174.6195
1.92                   0.9922414       -175.8264
1.924                  0.9976923       -177.1559
1.928                   1.002796       -178.6072
1.932                   1.006736        179.8402
1.936                   1.008904        178.2225
1.94                    1.008991        176.5849
1.944                   1.007021        174.9753
1.948                   1.003347        173.4372
1.952                   0.998593        172.0032
1.956                  0.9935559        170.6904
1.96                   0.9890798        169.4962
1.964                  0.9859148        168.3988
1.968                  0.9845864        167.3595
1.972                  0.9853033        166.3304
1.976                  0.9879218        165.2626
1.98                   0.9919762        164.1159
1.984                  0.9967676        162.8655
1.988                    1.00149        161.5056
1.992                   1.005367        160.0491
1.996                   1.007776        158.5248
2                       1.008344        156.9719
2.004                   1.006996        155.4342
2.008                   1.003969        153.9535
2.012                  0.9997693        152.5637
2.016                  0.9950992        151.2849
2.02                   0.9907413        150.1203
2.024                  0.9874307        149.0542
2.028                  0.9857271        148.0547
2.032                  0.9859139        147.0784
2.036                  0.9879476         146.079
2.04                   0.9914671        145.0158
2.044                  0.9958614        143.8607
2.048                   1.000381        142.6032
2.052                   1.004268        141.2511
2.056                    1.00688         139.828
2.06                    1.007791        138.3697
2.064                   1.006855        136.9175
2.068                   1.004229        135.5129
2.072                   1.000347         134.191
2.076                  0.9958535        132.9748
2.08                   0.9915037        131.8713
2.084                  0.9880365        130.8692
2.088                  0.9860463        129.9402
2.092                  0.9858757        129.0435
2.096                  0.9875508        128.1334
2.1                    0.9907752         127.168
2.104                  0.9949863        126.1163
2.108                  0.9994572        124.9643
2.112                   1.003424        123.7162
2.116                   1.006215        122.3929
2.12                    1.007357        121.0283
2.124                   1.006652        119.6634
2.128                   1.004205        118.3405
2.132                   1.000411        117.0965
2.136                  0.9958987         115.957
2.14                   0.9914256        114.9319
2.144                  0.9877576        114.0124
2.148                  0.9855327        113.1716
2.152                  0.9851437        112.3691
2.156                  0.9866624        111.5578
2.16                   0.9898231        110.6932
2.164                  0.9940716        109.7415
2.168                  0.9986652        108.6858
2.172                   1.002805        107.5284
2.176                   1.005772        106.2894
2.18                    1.007046        105.0031
2.184                   1.006384        103.7122
2.188                   1.003871        102.4613
2.192                   0.999899        101.2905
2.196                   0.995118        100.2282
2.2                     0.990332         99.2864
2.204                  0.9863663        98.45712
2.208                  0.9839209         97.7127
2.212                  0.9834394        97.00984
2.216                   0.985019        96.29748
2.22                   0.9883875        95.52663
2.224                  0.9929501        94.65975
2.228                  0.9978982        93.67764
2.232                   1.002353        92.58202
2.236                   1.005517        91.39472
2.24                    1.006807        90.15321
2.244                   1.005949        88.90481
2.248                   1.003028        87.69934
2.252                   0.998481        86.58165
2.256                  0.9930386        85.58425
2.26                    0.987612        84.72086
2.264                  0.9831432         83.9825
2.268                  0.9804347         83.3371
2.272                  0.9799932        82.73417
2.276                  0.9819221        82.11394
2.28                   0.9858913        81.41909
2.284                  0.9911911         80.6061
2.288                  0.9968612        79.65329
2.292                   1.001862        78.56388
2.296                   1.005252        77.36471
2.3                      1.00635        76.10116
2.304                   1.004843        74.83014
2.308                   1.000854        73.61166
2.312                  0.9949352        72.50001
2.316                  0.9879988        71.53452
2.32                   0.9811865        70.73134
2.324                  0.9756797        70.07752
2.328                  0.9724811         69.5301
2.332                  0.9722084        69.02183
2.336                  0.9749494        68.47329
2.34                   0.9802193        67.80909
2.344                  0.9870367         66.9732
2.348                  0.9940949        65.93931
2.352                   0.999992        64.71448