! TOUCHSTONE file generated by CST MICROWAVE STUDIO
! Date and time: Tue Jun  7 20:03:40 2022
! Project name: AppElm_antenne_patch_FR4.cst
! Parameters = {L=33.75; W=58.5; e=0.035; h=1.6; lambda=0.190476; ls=120; w0=1.6; w1=0.533333; ws=120; y0=20; y1=23.8095}
! Header version: 2018
! Port assignment regex: !\s*Touchstone port\s*([0-9]+)\s*=\s*(CST MWS port|CST DS port)\s*([0-9]+|Zmin|Zmax)\s*\(\"(.*)\"\)(\s*mode\s*([0-9]+))?.*
! Touchstone port assignment:
! Touchstone port 1 = CST MWS port 1 ("")
# GHz S MA R 50
0                      0.9892176              -0
0.004                  0.9893698        -7.73398
0.008                  0.9898078       -15.42749
0.012                  0.9904773       -23.04116
0.016                  0.9912958        -30.5378
0.02                   0.9921631        -37.8832
0.024                  0.9929736       -45.04694
0.028                  0.9936296       -52.00281
0.032                  0.9940541        -58.7292
0.036                  0.9941992       -65.20922
0.04                   0.9940522       -71.43086
0.044                   0.993637       -77.38695
0.048                  0.9930112       -83.07504
0.052                  0.9922578       -88.49721
0.056                  0.9914752       -93.65981
0.06                   0.9907642       -98.57297
0.064                  0.9902148       -103.2499
0.068                  0.9898943       -107.7063
0.072                  0.9898388        -111.959
0.076                  0.9900486       -116.0254
0.08                   0.9904884       -119.9221
0.084                  0.9910928       -123.6644
0.088                  0.9917755       -127.2653
0.092                  0.9924411       -130.7353
0.096                  0.9929991       -134.0823
0.1                    0.9933752       -137.3118
0.104                  0.9935227       -140.4276
0.108                  0.9934272       -143.4322
0.112                  0.9931091       -146.3277
0.116                  0.9926199       -149.1163
0.12                   0.9920348       -151.8016
0.124                   0.991442       -154.3881
0.128                  0.9909289       -156.8821
0.132                  0.9905705       -159.2913
0.136                  0.9904176       -161.6244
0.14                   0.9904896       -163.8907
0.144                  0.9907724       -166.0988
0.148                  0.9912197       -168.2568
0.152                  0.9917619       -170.3708
0.156                  0.9923152       -172.4451
0.16                    0.992796       -174.4817
0.164                  0.9931318       -176.4807
0.168                  0.9932739       -178.4406
0.172                  0.9932033        179.6411
0.176                   0.992934        177.7668
0.18                   0.9925106        175.9389
0.184                  0.9920009         174.158
0.188                  0.9914859        172.4236
0.192                  0.9910465        170.7332
0.196                  0.9907515        169.0827
0.2                     0.990646        167.4666
0.204                   0.990745        165.8791
0.208                   0.991031        164.3143
0.212                   0.991456        162.7672
0.216                   0.991951        161.2344
0.22                    0.992436        159.7142
0.224                  0.9928327        158.2068
0.228                  0.9930783        156.7143
0.232                  0.9931341        155.2398
0.236                   0.992992        153.7871
0.24                   0.9926763          152.36
0.244                   0.992239        150.9612
0.248                  0.9917517        149.5921
0.252                   0.991294        148.2522
0.256                  0.9909404        146.9395
0.26                    0.990748          145.65
0.264                  0.9907479        144.3792
0.268                  0.9909386        143.1218
0.272                  0.9912875        141.8732
0.276                  0.9917363        140.6299
0.28                   0.9922101          139.39
0.284                    0.99263        138.1534
0.288                  0.9929267         136.922
0.292                  0.9930512        135.6989
0.296                  0.9929833        134.4881
0.3                    0.9927345        133.2938
0.304                  0.9923466        132.1195
0.308                  0.9918844        130.9675
0.312                  0.9914253        129.8383
0.316                  0.9910455        128.7307
0.32                   0.9908091        127.6418
0.324                  0.9907548        126.5672
0.328                  0.9908917        125.5022
0.332                   0.991196        124.4423
0.336                   0.991616        123.3837
0.34                   0.9920803        122.3244
0.344                  0.9925103         121.264
0.348                  0.9928335        120.2041
0.352                  0.9929954        119.1476
0.356                  0.9929687        118.0988
0.36                   0.9927581        117.0618
0.364                  0.9923989        116.0406
0.368                  0.9919524        115.0378
0.372                  0.9914943        114.0545
0.376                  0.9911026        113.0899
0.38                   0.9908439        112.1414
0.384                  0.9907624        111.2051
0.388                  0.9908719        110.2763
0.392                  0.9911534        109.3505
0.396                  0.9915586        108.4238
0.4                    0.9920182         107.494
0.404                  0.9924532        106.5607
0.408                  0.9927892        105.6251
0.412                  0.9929685        104.6904
0.416                  0.9929604        103.7605
0.42                   0.9927665          102.84
0.424                  0.9924191        101.9328
0.428                  0.9919787        101.0418
0.432                  0.9915204        100.1684
0.436                  0.9911232        99.31193
0.44                   0.9908556        98.46992
0.444                   0.990764        97.63852
0.448                  0.9908643        96.81316
0.452                  0.9911391        95.98919
0.456                  0.9915412        95.16282
0.46                   0.9920006         94.3317
0.464                  0.9924379        93.49529
0.468                  0.9927772        92.65501
0.472                  0.9929601        91.81387
0.476                  0.9929541        90.97605
0.48                   0.9927605        90.14605
0.484                  0.9924123          89.328
0.488                  0.9919695        88.52489
0.492                  0.9915088        87.73805
0.496                  0.9911102         86.9669
0.5                    0.9908433        86.20895
0.504                  0.9907547        85.46035
0.508                  0.9908598         84.7164
0.512                  0.9911406        83.97249
0.516                  0.9915481        83.22477
0.52                   0.9920113        82.47096
0.524                  0.9924491        81.71063
0.528                  0.9927851        80.94522
0.532                  0.9929605        80.17795
0.536                  0.9929442        79.41306
0.54                   0.9927386         78.6552
0.544                   0.992379        77.90852
0.548                  0.9919279        77.17601
0.552                  0.9914638         76.4589
0.556                   0.991068        75.75651
0.56                   0.9908096        75.06623
0.564                  0.9907344        74.38405
0.568                  0.9908558         73.7052
0.572                  0.9911527        73.02499
0.576                  0.9915729        72.33968
0.58                   0.9920425        71.64707
0.584                  0.9924793        70.94688
0.588                  0.9928059        70.24085
0.592                   0.992965        69.53233
0.596                   0.992928        68.82578
0.6                    0.9927006         68.1259
0.604                  0.9923221        67.43687
0.608                  0.9918587        66.76156
0.612                  0.9913914        66.10108
0.616                  0.9910021        65.45448
0.62                   0.9907599        64.81891
0.624                  0.9907077        64.19019
0.628                  0.9908546        63.56341
0.632                  0.9911755        62.93386
0.636                  0.9916133        62.29792
0.64                   0.9920909        61.65356
0.644                  0.9925239        61.00079
0.648                  0.9928356        60.34164
0.652                  0.9929704        59.67974
0.656                  0.9929037        59.01974
0.66                   0.9926468        58.36641
0.664                  0.9922441         57.7239
0.668                   0.991766        57.09495
0.672                  0.9912965        56.48035
0.676                  0.9909189        55.87885
0.68                   0.9906999        55.28733
0.684                  0.9906786         54.7013
0.688                  0.9908591        54.11575
0.692                  0.9912098        53.52599
0.696                  0.9916683        52.92852
0.7                    0.9921537        52.32162
0.704                  0.9925795        51.70565
0.708                  0.9928698        51.08299
0.712                  0.9929729        50.45759
0.716                  0.9928693        49.83432
0.72                   0.9925767        49.21802
0.724                   0.992146        48.61273
0.728                  0.9916526        48.02096
0.732                  0.9911839        47.44315
0.736                   0.990823        46.87768
0.74                    0.990634        46.32102
0.744                  0.9906511        45.76845
0.748                  0.9908715         45.2148
0.752                  0.9912563        44.65545
0.756                   0.991737         44.0871
0.76                   0.9922285        43.50839
0.764                  0.9926427        42.92011
0.768                  0.9929057        42.32505
0.772                    0.99297        41.72752
0.776                  0.9928232        41.13258
0.78                   0.9924902        40.54512
0.784                  0.9920295        39.96903
0.788                   0.991522        39.40649
0.792                  0.9910577        38.85755
0.796                  0.9907193        38.32011
0.8                    0.9905673        37.79025
0.804                  0.9906293        37.26295
0.808                  0.9908947        36.73294
0.812                  0.9913164        36.19569
0.816                  0.9918193         35.6482
0.82                   0.9923139        35.08952
0.824                  0.9927115        34.52092
0.828                  0.9929409        33.94567
0.832                    0.99296        33.36843
0.836                  0.9927649        32.79444
0.84                   0.9923886         32.2286
0.844                  0.9918975        31.67459
0.848                  0.9913781         31.1342
0.852                  0.9909228          30.607
0.856                  0.9906132        30.09037
0.86                   0.9905048        29.57996
0.864                  0.9906174        29.07047
0.868                  0.9909316        28.55658
0.872                  0.9913914        28.03389
0.876                  0.9919149        27.49977
0.88                   0.9924087        26.95373
0.884                   0.992784         26.3976
0.888                  0.9929733        25.83513
0.892                  0.9929419        25.27133
0.896                  0.9926939        24.71163
0.9                    0.9922726        24.16085
0.904                  0.9917519        23.62239
0.908                  0.9912242        23.09761
0.912                  0.9907836        22.58552
0.916                  0.9905091        22.08295
0.92                   0.9904501        21.58513
0.924                   0.990618        21.08649
0.928                  0.9909834        20.58167
0.932                  0.9914812        20.06651
0.936                  0.9920225        19.53876
0.94                   0.9925105        18.99852
0.944                  0.9928574        18.44816
0.948                  0.9930007        17.89195
0.952                  0.9929133        17.33525
0.956                  0.9926095        16.78359
0.96                   0.9921425        16.24169
0.964                  0.9915944        15.71263
0.968                  0.9910627        15.19721
0.972                  0.9906423        14.69388
0.976                  0.9904088         14.1989
0.98                   0.9904047        13.70705
0.984                  0.9906315        13.21252
0.988                  0.9910492        12.71001
0.992                  0.9915834        12.19561
0.996                  0.9921386        11.66757
1                      0.9926155        11.12656
1.004                  0.9929279        10.57558
1.008                  0.9930193        10.01938
1.012                  0.9928718        9.463644
1.016                  0.9925103        8.913993
1.02                   0.9919981        8.374969
1.024                  0.9914255        7.849222
1.028                  0.9908945        7.337018
1.032                     0.9905         6.83615
1.036                  0.9903133         6.34231
1.04                   0.9903686        5.849848
1.044                  0.9906568        5.352779
1.048                  0.9911268        4.845866
1.052                  0.9916951        4.325557
1.056                  0.9922598         3.79063
1.06                     0.99272        3.242389
1.064                   0.992992         2.68444
1.068                  0.9930265        2.122034
1.072                  0.9928157        1.561146
1.076                  0.9923956        1.007421
1.08                   0.9918396       0.4651643
1.084                  0.9912461     -0.06343714
1.088                  0.9907209      -0.5787348
1.092                   0.990358        -1.08359
1.096                  0.9902231       -1.582891
1.1                    0.9903413       -2.082687
1.104                  0.9906923       -2.589106
1.108                  0.9912138       -3.107234
1.112                   0.991813       -3.640262
1.116                  0.9923828       -4.188781
1.12                   0.9928206       -4.750878
1.124                  0.9930474       -5.322292
1.128                  0.9930211       -5.897316
1.132                  0.9927448       -6.469719
1.136                  0.9922661       -7.033878
1.14                   0.9916684       -7.585785
1.144                   0.991058       -8.123763
1.148                  0.9905434       -8.648811
1.152                   0.990217       -9.164466
1.156                  0.9901381       -9.676182
1.16                   0.9903216       -10.19038
1.164                  0.9907359       -10.71328
1.168                  0.9913074       -11.24979
1.172                  0.9919345       -11.80262
1.176                  0.9925047       -12.37181
1.18                   0.9929157       -12.95471
1.184                   0.993093       -13.54649
1.188                  0.9930032       -14.14098
1.192                  0.9926604       -14.73173
1.196                  0.9921237       -15.31321
1.2                    0.9914872       -15.88173
1.204                  0.9908635       -16.43617
1.208                  0.9903637       -16.97819
1.212                  0.9900776       -17.51201
1.216                  0.9900574       -18.04364
1.22                   0.9903077       -18.57982
1.224                   0.990785       -19.12685
1.228                  0.9914046       -19.68939
1.232                  0.9920562       -20.26967
1.236                  0.9926234        -20.8671
1.24                   0.9930042       -21.47837
1.244                  0.9931293       -22.09804
1.248                  0.9929745       -22.71951
1.252                  0.9925651       -23.33618
1.256                  0.9919719       -23.94261
1.26                   0.9912988       -24.53547
1.264                  0.9906646       -25.11422
1.268                  0.9901825       -25.68121
1.272                  0.9899391       -26.24131
1.276                  0.9899789       -26.80106
1.28                   0.9902962       -27.36752
1.284                  0.9908354       -27.94699
1.288                  0.9915012       -28.54389
1.292                  0.9921752       -29.15996
1.296                   0.992737       -29.79397
1.3                    0.9930856       -30.44194
1.304                  0.9931577       -31.09786
1.308                  0.9929376       -31.75476
1.312                  0.9924626       -32.40584
1.316                  0.9918142       -33.04581
1.32                    0.991106       -33.67173
1.324                   0.990463       -34.28362
1.328                  0.9899997       -34.88449
1.332                  0.9897992       -35.47986
1.336                  0.9898987        -36.0768
1.34                   0.9902818       -36.68263
1.344                  0.9908814       -37.30369
1.348                  0.9915919        -37.9441
1.352                  0.9922872       -38.60514
1.356                  0.9928435       -39.28495
1.36                   0.9931605       -39.97893
1.364                  0.9931803        -40.6805
1.368                  0.9928971        -41.3823
1.372                  0.9923576       -42.07742
1.376                  0.9916552       -42.76067
1.38                   0.9909123       -43.42947
1.384                  0.9902598       -44.08439
1.388                  0.9898135       -44.72909
1.392                  0.9896537        -45.3697
1.396                  0.9898101       -46.01379
1.4                    0.9902566       -46.66897
1.404                  0.9909153       -47.34156
1.408                  0.9916704        -48.0355
1.412                  0.9923881       -48.75158
1.416                  0.9929411       -49.48738
1.42                     0.99323       -50.23767
1.424                  0.9932017       -50.99537
1.428                  0.9928579       -51.75272
1.432                  0.9922564       -52.50265
1.436                  0.9915004       -53.24005
1.44                   0.9907213       -53.96267
1.444                  0.9900557       -54.67157
1.448                  0.9896217       -55.37099
1.452                   0.989497       -56.06768
1.456                  0.9897054       -56.76965
1.46                   0.9902118       -57.48485
1.464                  0.9909283       -58.21964
1.468                   0.991729       -58.97779
1.472                  0.9924735       -59.75968
1.476                  0.9930293       -60.56242
1.48                   0.9932974       -61.38019
1.484                  0.9932276       -62.20538
1.488                  0.9928291       -63.02984
1.492                  0.9921684       -63.84629
1.496                   0.991358       -64.64964
1.5                    0.9905385       -65.43784
1.504                  0.9898528       -66.21238
1.508                  0.9894218       -66.97802
1.512                  0.9893229       -67.74204
1.516                  0.9895754       -68.51295
1.52                   0.9901366       -69.29904
1.524                  0.9909098       -70.10682
1.528                    0.99176       -70.93997
1.532                  0.9925386        -71.7986
1.536                   0.993108       -72.67938
1.54                   0.9933669       -73.57598
1.544                  0.9932671       -74.48027
1.548                  0.9928218       -75.38366
1.552                  0.9921053       -76.27861
1.556                  0.9912389       -77.15984
1.56                   0.9903715       -78.02544
1.564                   0.989654       -78.87712
1.568                  0.9892121       -79.72012
1.572                  0.9891248       -80.56217
1.576                  0.9894096       -81.41233
1.58                    0.990019       -82.27926
1.584                  0.9908482       -83.16977
1.588                  0.9917538       -84.08759
1.592                  0.9925783        -85.0327
1.596                  0.9931772       -86.00146
1.6                    0.9934443       -86.98709
1.604                  0.9933297       -87.98095
1.608                  0.9928493       -88.97393
1.612                  0.9920816       -89.95801
1.616                  0.9911561       -90.92768
1.62                   0.9902305       -91.88088
1.624                  0.9894648       -92.81941
1.628                  0.9889922       -93.74877
1.632                  0.9888969       -94.67717
1.636                  0.9891978       -95.61416
1.64                   0.9898454       -96.56894
1.644                  0.9907297       -97.54877
1.648                  0.9916986       -98.55759
1.652                  0.9925848       -99.59553
1.656                  0.9932344       -100.6587
1.66                   0.9935329         -101.74
1.664                   0.993425       -102.8303
1.668                  0.9929244       -103.9198
1.672                  0.9921127       -104.9999
1.676                  0.9911246       -106.0645
1.68                   0.9901277       -107.1113
1.684                  0.9892923       -108.1418
1.688                  0.9887634       -109.1616
1.692                   0.988634       -110.1794
1.696                  0.9889296       -111.2052
1.7                    0.9896022       -112.2488
1.704                  0.9905386       -113.3182
1.708                  0.9915795       -114.4179
1.712                  0.9925467       -115.5483
1.716                   0.993273       -116.7054
1.72                   0.9936321       -117.8821
1.724                  0.9935576       -119.0685
1.728                  0.9930573       -120.2543
1.732                  0.9922111         -121.43
1.736                   0.991158       -122.5885
1.74                   0.9900745       -123.7269
1.744                  0.9891449       -124.8464
1.748                  0.9885282       -125.9523
1.752                  0.9883331       -127.0536
1.756                  0.9885957       -128.1609
1.76                   0.9892752       -129.2849
1.764                  0.9902581       -130.4342
1.768                   0.991379       -131.6144
1.772                  0.9924468       -132.8264
1.776                   0.993279       -134.0666
1.78                   0.9937314       -135.3276
1.784                  0.9937225       -136.5992
1.788                  0.9932472       -137.8701
1.792                  0.9923799       -139.1298
1.796                  0.9912615       -140.3703
1.8                    0.9900772       -141.5873
1.804                  0.9890263       -142.7813
1.808                  0.9882879       -143.9574
1.812                    0.98799       -145.1246
1.816                   0.988187       -146.2941
1.82                   0.9888498       -147.4775
1.824                  0.9898687       -148.6849
1.828                  0.9910731       -149.9226
1.832                  0.9922595       -151.1928
1.836                  0.9932259       -152.4923
1.84                   0.9938053       -153.8139
1.844                  0.9938945       -155.1469
1.848                  0.9934716       -156.4791
1.852                  0.9925995       -157.7988
1.856                   0.991418       -159.0966
1.86                   0.9901204       -160.3668
1.864                  0.9889231       -161.6089
1.868                  0.9880278       -162.8273
1.872                  0.9875885        -164.031
1.876                  0.9876827       -165.2317
1.88                   0.9882986       -166.4423
1.884                  0.9893352       -167.6741
1.888                  0.9906186       -168.9352
1.892                   0.991932       -170.2288
1.896                  0.9930515        -171.553
1.9                    0.9937843       -172.9005
1.904                  0.9939998       -174.2606
1.908                  0.9936531       -175.6201
1.912                   0.992792        -176.966
1.916                   0.991551       -178.2873
1.92                   0.9901306       -179.5767
1.924                  0.9887632        179.1676
1.928                  0.9876761         177.942
1.932                  0.9870517        176.7379
1.936                  0.9869954        175.5427
1.94                   0.9875166        174.3426
1.944                   0.988526        173.1246
1.948                  0.9898501        171.8789
1.952                  0.9912602        170.6006
1.956                  0.9925115        169.2907
1.96                   0.9933837        167.9556
1.964                  0.9937177        166.6063
1.968                  0.9934425        165.2563
1.972                  0.9925864        163.9198
1.976                  0.9912729        162.6091
1.98                   0.9896999        161.3328
1.984                  0.9881066         160.094
1.988                  0.9867314        158.8899
1.992                  0.9857703        157.7124
1.996                  0.9853401         156.549
2                      0.9854564        155.3856
2.004                  0.9860298        154.2092
2.008                  0.9868813        153.0099
2.012                   0.987773        151.7834
2.016                   0.988454        150.5316
2.02                   0.9887043        149.2626
2.024                  0.9883788        147.9894
2.028                  0.9874369        146.7276
2.032                  0.9859566        145.4934
2.036                  0.9841278        144.2999
2.04                   0.9822269        143.1553
2.044                  0.9805744        142.0604
2.048                  0.9794811        141.0086
2.052                  0.9791929        139.9854
2.056                  0.9798439        138.9715
2.06                    0.981426        137.9452
2.064                  0.9837828        136.8864
2.068                  0.9866302          135.78
2.072                  0.9895984        134.6186
2.076                  0.9922898        133.4038
2.08                   0.9943412        132.1458
2.084                  0.9954815        130.8622
2.088                  0.9955747        129.5752
2.092                  0.9946438        128.3083
2.096                    0.99287        127.0828
2.1                    0.9905681         125.915
2.104                   0.988139        124.8125
2.108                   0.986007        123.7736
2.112                  0.9845501        122.7864
2.116                  0.9840327        121.8311
2.12                   0.9845603         120.883
2.124                  0.9860563        119.9167
2.128                  0.9882746        118.9111
2.132                  0.9908407        117.8527
2.136                  0.9933158        116.7381
2.14                   0.9952714        115.5746
2.144                  0.9963608        114.3784
2.148                  0.9963787        113.1726
2.152                  0.9952962         111.983
2.156                  0.9932697        110.8345
2.16                   0.9906203        109.7465
2.164                  0.9877841        108.7301
2.168                   0.985243         107.785
2.172                  0.9834412        106.8995
2.176                   0.982706        106.0518
2.18                   0.9831852        105.2137
2.184                  0.9848146        104.3552
2.188                  0.9873255        103.4507
2.192                  0.9902898        102.4832
2.196                  0.9931917        101.4475
2.2                    0.9955173        100.3508
2.204                  0.9968412         99.2117
2.208                  0.9968997        98.05702
2.212                  0.9956376        96.91759
2.216                  0.9932233        95.82347
2.22                   0.9900283        94.79899
2.224                  0.9865727        93.85848
2.228                   0.983442        93.00299
2.232                  0.9811869        92.21928
2.236                  0.9802224        91.48123
2.24                    0.980747         90.7541
2.244                  0.9826975        90.00081
2.248                  0.9857534        89.18887
2.252                  0.9893898        88.29646
2.256                  0.9929664        87.31638
2.26                   0.9958384        86.25714
2.264                  0.9974655         85.1414
2.268                  0.9975054        84.00233
2.272                  0.9958751        82.87856
2.276                  0.9927735        81.80824
2.28                   0.9886622        80.82289
2.284                  0.9841984        79.94174
2.288                  0.9801348         79.1672
2.292                  0.9771897        78.48298
2.296                  0.9759136        77.85552
2.3                    0.9765774        77.23923
2.304                   0.979109        76.58487
2.308                  0.9830931        75.84896
2.312                   0.987838        75.00218
2.316                  0.9924938        74.03459
2.32                   0.9961979        72.95717
2.324                  0.9982217        71.79972
2.328                  0.9980938        70.60619
2.332                  0.9956861        69.42827
2.336                  0.9912515        68.31786
2.34                   0.9854045        67.31895
2.344                  0.9790442         66.4597
2.348                  0.9732209        65.74533
2.352                  0.9689592        65.15427