! TOUCHSTONE file generated by CST MICROWAVE STUDIO
! Date and time: Tue Jun 14 12:33:50 2022
! Project name: AppElm_antenne_patch_FR4.cst
! Parameters = {L=45; W=58.5; e=0.035; h=1.6; lambda=0.190476; ls=120; w0=2.54; w1=0.93165; ws=120; y0=18; y1=23.8}
! Header version: 2018
! Port assignment regex: !\s*Touchstone port\s*([0-9]+)\s*=\s*(CST MWS port|CST DS port)\s*([0-9]+|Zmin|Zmax)\s*\(\"(.*)\"\)(\s*mode\s*([0-9]+))?.*
! Touchstone port assignment:
! Touchstone port 1 = CST MWS port 1 ("")
# GHz S MA R 50
0                      0.9873211              -0
0.004                  0.9880652       -9.971897
0.008                  0.9901959       -19.85128
0.012                  0.9934244       -29.55042
0.016                  0.9973187       -38.99035
0.02                    1.001368       -48.10346
0.024                   1.005053       -56.83459
0.028                    1.00792       -65.14097
0.032                   1.009636       -72.99144
0.036                   1.010027       -80.36552
0.04                      1.0091       -87.25274
0.044                   1.007033        -93.6523
0.048                    1.00415       -99.57319
0.052                   1.000877       -105.0344
0.056                  0.9976793       -110.0647
0.06                   0.9949955       -114.7023
0.064                   0.993178       -118.9924
0.068                   0.992441       -122.9848
0.072                  0.9928326       -126.7299
0.076                  0.9942342       -130.2745
0.08                   0.9963841       -133.6583
0.084                  0.9989238       -136.9115
0.088                   1.001457       -140.0533
0.092                   1.003607       -143.0926
0.096                   1.005078       -146.0296
0.1                     1.005684       -148.8581
0.104                    1.00538       -151.5688
0.108                   1.004257       -154.1522
0.112                   1.002527       -156.6015
0.116                   1.000484       -158.9149
0.12                   0.9984606       -161.0971
0.124                  0.9967747       -163.1593
0.128                   0.995679       -165.1192
0.132                  0.9953247       -166.9981
0.136                   0.995739       -168.8189
0.14                   0.9968253       -170.6028
0.144                  0.9983831       -172.3669
0.148                   1.000144       -174.1219
0.152                   1.001819       -175.8715
0.156                   1.003141       -177.6128
0.16                    1.003912       -179.3371
0.164                   1.004025        178.9673
0.168                   1.003485        177.3136
0.172                   1.002399        175.7135
0.176                   1.000959        174.1753
0.18                     0.99941        172.7023
0.184                  0.9980087        171.2921
0.188                   0.996982        169.9365
0.192                  0.9964896        168.6229
0.196                   0.996599        167.3362
0.2                    0.9972764         166.061
0.204                  0.9983946        164.7844
0.208                  0.9997561        163.4975
0.212                   1.001129        162.1967
0.216                   1.002284         160.884
0.22                    1.003034        159.5665
0.224                   1.003264        158.2545
0.228                   1.002947          156.96
0.232                   1.002143        155.6947
0.236                   1.000997        154.4675
0.24                   0.9997058        153.2836
0.244                  0.9984878        152.1431
0.248                  0.9975467        151.0411
0.252                  0.9970366        149.9683
0.256                  0.9970371        148.9128
0.26                   0.9975394        147.8618
0.264                  0.9984503         146.804
0.268                  0.9996086        145.7311
0.272                   1.000814        144.6396
0.276                   1.001861        143.5308
0.28                    1.002576        142.4104
0.284                   1.002841        141.2876
0.288                   1.002616        140.1735
0.292                   1.001947         139.079
0.296                   1.000949         138.013
0.3                    0.9997968        136.9811
0.304                  0.9986868        135.9843
0.308                  0.9978087         135.019
0.312                  0.9973107        134.0775
0.316                  0.9972748        133.1492
0.32                   0.9977026        132.2227
0.324                  0.9985169        131.2874
0.328                  0.9995736        130.3355
0.332                   1.000689        129.3635
0.336                   1.001672        128.3722
0.34                    1.002354        127.3668
0.344                   1.002621         126.356
0.348                   1.002431        125.3502
0.352                   1.001817        124.3598
0.356                   1.000888        123.3936
0.36                   0.9998053        122.4572
0.364                  0.9987555         121.552
0.368                  0.9979199        120.6748
0.372                   0.997443        119.8185
0.376                  0.9974059        118.9732
0.38                   0.9978134         118.128
0.384                  0.9985932        117.2727
0.388                  0.9996082        116.3999
0.392                   1.000682        115.5061
0.396                   1.001628         114.592
0.4                     1.002283        113.6627
0.404                   1.002536        112.7267
0.408                   1.002344        111.7941
0.412                    1.00174        110.8753
0.416                    1.00083        109.9788
0.42                   0.9997731        109.1102
0.424                  0.9987518        108.2708
0.428                  0.9979449        107.4576
0.432                  0.9974935        106.6635
0.436                  0.9974764        105.8787
0.44                   0.9978968        105.0925
0.444                  0.9986807        104.2949
0.448                  0.9996907        103.4786
0.452                    1.00075        102.6404
0.456                   1.001675        101.7811
0.46                    1.002303        100.9062
0.464                   1.002524         100.024
0.468                   1.002301         99.1449
0.472                   1.001671        98.27919
0.476                   1.000743        97.43546
0.48                   0.9996777        96.61901
0.484                   0.998661        95.83098
0.488                  0.9978714        95.06805
0.492                  0.9974477         94.3229
0.496                  0.9974652         93.5856
0.5                    0.9979216        92.84516
0.504                  0.9987367        92.09175
0.508                  0.9997674        91.31826
0.512                   1.000833        90.52159
0.516                   1.001745        89.70318
0.52                    1.002344        88.86872
0.524                   1.002523        88.02713
0.528                   1.002249        87.18896
0.532                   1.001568        86.36468
0.536                   1.000597        85.56285
0.54                   0.9995042        84.78856
0.544                  0.9984817        84.04254
0.548                  0.9977093        83.32095
0.552                  0.9973247        82.61597
0.556                  0.9973974        81.91715
0.56                   0.9979162        81.21323
0.564                  0.9987908        80.49429
0.568                  0.9998677         79.7534
0.572                   1.000957         78.9879
0.576                   1.001867        78.19977
0.58                    1.002437        77.39541
0.584                   1.002563         76.5843
0.588                   1.002222        75.77752
0.592                    1.00147        74.98577
0.596                   1.000437        74.21761
0.6                    0.9993022        73.47782
0.604                  0.9982661        72.76658
0.608                  0.9975121        72.07932
0.612                  0.9971761        71.40744
0.616                  0.9973199         70.7398
0.62                   0.9979206        70.06477
0.624                  0.9988739        69.37226
0.628                   1.000012        68.65557
0.632                   1.001134        67.91259
0.636                   1.002041        67.14612
0.64                    1.002571        66.36336
0.644                   1.002628        65.57464
0.648                   1.002198        64.79165
0.652                   1.001352        64.02547
0.656                   1.000236        63.28456
0.66                   0.9990449        62.57334
0.664                  0.9979887        61.89125
0.668                  0.9972562        61.23278
0.672                  0.9969799        60.58832
0.676                  0.9972125         59.9459
0.68                   0.9979158        59.29332
0.684                  0.9989676        58.62035
0.688                   1.000183        57.92061
0.692                   1.001346        57.19268
0.696                   1.002251        56.44031
0.7                     1.002734        55.67176
0.704                   1.002708        54.89838
0.708                    1.00217         54.1326
0.712                   1.001213        53.38587
0.716                  0.9999997         52.6666
0.72                   0.9987439        51.97868
0.724                  0.9976677        51.32063
0.728                  0.9969649        50.68576
0.732                  0.9967639        50.06331
0.736                  0.9971052        49.44029
0.74                    0.997932        48.80384
0.744                  0.9991003        48.14365
0.748                   1.000404        47.45371
0.752                   1.001612        46.73348
0.756                   1.002508        45.98789
0.76                    1.002929        45.22649
0.764                   1.002797        44.46178
0.768                   1.002128        43.70707
0.772                   1.001034        42.97424
0.776                  0.9997027        42.27155
0.78                   0.9983684        41.60225
0.784                  0.9972678        40.96373
0.788                  0.9965991        40.34794
0.792                  0.9964859        39.74269
0.796                  0.9969528        39.13383
0.8                    0.9979214         38.5078
0.804                  0.9992217        37.85419
0.808                   1.000624        37.16752
0.812                   1.001877        36.44831
0.816                   1.002757        35.70287
0.82                    1.003103        34.94225
0.824                   1.002845        34.18028
0.828                   1.002022        33.43124
0.832                   1.000772        32.70743
0.836                  0.9993101        32.01695
0.84                   0.9978935        31.36218
0.844                  0.9967751        30.73918
0.848                   0.996158        30.13823
0.852                   0.996158        29.54553
0.856                  0.9967812        28.94557
0.86                   0.9979222        28.32405
0.864                  0.9993814         27.6705
0.868                     1.0009        26.98013
0.872                   1.002209        26.25472
0.876                   1.003071        25.50223
0.88                    1.003327        24.73542
0.884                   1.002925        23.96966
0.888                   1.001925        23.22034
0.892                   1.000497        22.50019
0.896                  0.9988885        21.81704
0.9                     0.997382        21.17225
0.904                   0.996248         20.5603
0.908                  0.9956947        19.96956
0.912                  0.9958278        19.38433
0.916                  0.9966311        18.78762
0.92                   0.9979678        18.16431
0.924                  0.9996034        17.50394
0.928                   1.001248        16.80258
0.932                   1.002607        16.06353
0.936                   1.003435        15.29665
0.94                    1.003576        14.51671
0.944                   1.002995        13.74084
0.948                   1.001783        12.98563
0.952                   1.000143         12.2643
0.956                  0.9983609        11.58431
0.96                   0.9967499        10.94578
0.964                  0.9956004         10.3413
0.968                  0.9951244        9.757013
0.972                  0.9954161        9.174988
0.976                  0.9964323         8.57652
0.98                   0.9979988        7.945584
0.984                  0.9998409        7.271784
0.988                   1.001632        6.552226
0.992                   1.003051        5.791976
0.996                   1.003839        5.003148
1                       1.003848          4.2028
1.004                   1.003062        3.410081
1.008                   1.001606        2.642993
1.012                  0.9997265        1.915284
1.016                  0.9977497        1.233917
1.02                   0.9960262       0.5975792
1.024                  0.9948681    -0.003389771
1.028                   0.994492      -0.5855086
1.032                  0.9949768       -1.169266
1.036                  0.9962473       -1.775358
1.04                   0.9980853       -2.420835
1.044                   1.000168       -3.115956
1.048                   1.002126       -3.862367
1.052                   1.003608       -4.652867
1.056                   1.004342       -5.472708
1.06                    1.004183       -6.302102
1.064                   1.003142       -7.119516
1.068                   1.001386        -7.90528
1.072                  0.9992095       -8.644998
1.076                  0.9969897       -9.332241
1.08                   0.9951201       -9.970072
1.084                    0.99394       -10.57077
1.088                  0.9936717       -11.15404
1.092                  0.9943769       -11.74349
1.096                  0.9959418       -12.36219
1.1                    0.9980963       -13.02838
1.104                   1.000461       -13.75225
1.108                   1.002615       -14.53395
1.112                   1.004168       -15.36373
1.116                   1.004834       -16.22379
1.12                    1.004474       -17.09098
1.124                   1.003129       -17.94098
1.128                   1.001012       -18.75203
1.132                   0.998481       -19.50894
1.136                  0.9959728       -20.20588
1.14                   0.9939339       -20.84794
1.144                  0.9927378       -21.45072
1.148                  0.9926143       -22.03781
1.152                  0.9936044       -22.63663
1.156                  0.9955481       -23.27326
1.16                   0.9981111       -23.96758
1.164                   1.000844        -24.7296
1.168                    1.00326       -25.55773
1.172                   1.004924       -26.43922
1.176                   1.005524       -27.35234
1.18                    1.004929       -28.27002
1.184                   1.003215       -29.16423
1.188                   1.000653       -30.01057
1.192                  0.9976739        -30.7926
1.196                  0.9947929       -31.50507
1.2                    0.9925246       -32.15551
1.204                  0.9912874        -32.7635
1.208                  0.9913246       -33.35756
1.212                  0.9926538       -33.97002
1.216                  0.9950585       -34.63088
1.22                   0.9981244       -35.36219
1.224                   1.001312       -36.17394
1.228                   1.004054       -37.06249
1.232                   1.005848       -38.01131
1.236                   1.006353       -38.99383
1.24                    1.005441        -39.9778
1.244                   1.003228       -40.93038
1.248                    1.00006       -41.82344
1.252                  0.9964619       -42.63867
1.256                  0.9930537       -43.37119
1.26                   0.9904429       -44.03147
1.264                  0.9891142       -44.64428
1.268                  0.9893346       -45.24474
1.272                  0.9910968       -45.87194
1.276                  0.9941135       -46.56147
1.28                   0.9978653       -47.33865
1.284                   1.001693        -48.2139
1.288                   1.004911       -49.18115
1.292                    1.00693       -50.21908
1.296                   1.007354       -51.29478
1.3                     1.006053       -52.36899
1.304                   1.003189       -53.40207
1.308                   0.999204       -54.36046
1.312                  0.9947507       -55.22255
1.316                  0.9905936       -55.98346
1.32                   0.9874777       -56.65715
1.324                  0.9859889       -57.27543
1.328                  0.9864393       -57.88277
1.332                  0.9887961       -58.52825
1.336                  0.9926782       -59.25595
1.34                   0.9974191       -60.09648
1.344                   1.002185       -61.06147
1.348                   1.006118       -62.14194
1.352                   1.008485       -63.31015
1.356                   1.008802       -64.52429
1.36                    1.006916       -65.73479
1.364                   1.003044       -66.89166
1.368                  0.9977536       -67.95225
1.372                  0.9918863       -68.88887
1.376                  0.9864303       -69.69498
1.38                   0.9823532       -70.38876
1.384                  0.9804211       -71.01207
1.388                   0.981042       -71.62413
1.392                  0.9841696       -72.29046
1.396                  0.9892944       -73.06992
1.4                     0.995528       -74.00317
1.404                   1.001758       -75.10538
1.408                   1.006842       -76.36447
1.412                   1.009793       -77.74374
1.416                   1.009953       -79.18797
1.42                    1.007095       -80.63123
1.424                   1.001488       -82.00595
1.428                  0.9938798       -83.25278
1.432                   0.985412       -84.33091
1.436                  0.9774612       -85.22782
1.44                   0.9714136       -85.96612
1.444                  0.9684051       -86.60427
1.448                  0.9690794       -87.22883
1.452                  0.9734242       -87.93848
1.456                  0.9807386       -88.82378
1.46                   0.9897427       -89.94901
1.464                  0.9987968       -91.34113
1.468                   1.006178       -92.98716
1.472                   1.010356        -94.8385
1.476                   1.010226       -96.81899
1.48                     1.00529       -98.83468
1.484                  0.9957591       -100.7844
1.488                  0.9825912       -102.5723
1.492                  0.9674253       -104.1225
1.496                  0.9524096       -105.3973
1.5                    0.9398959       -106.4162
1.504                  0.9320124       -107.2677
1.508                  0.9301816       -108.1065
1.512                   0.934712       -109.1297
1.516                  0.9446047       -110.5368
1.52                   0.9576453       -112.4906
1.524                  0.9707342       -115.0931
1.528                  0.9803259       -118.3829
1.532                  0.9828522       -122.3471
1.536                  0.9750571        -126.939
1.54                   0.9542292       -132.0941
1.544                  0.9183437       -137.7415
1.548                  0.8661382       -143.8118
1.552                  0.7971371       -150.2405
1.556                  0.7116404       -156.9704
1.56                   0.6106833       -163.9535
1.564                  0.4959696       -171.1544
1.568                  0.3697864       -178.5635
1.572                  0.2349008        173.7406
1.576                  0.0944612        164.9538
1.58                  0.04848335       -15.76851
1.584                  0.1899003       -26.51718
1.588                  0.3268249       -34.38116
1.592                  0.4559754       -41.87073
1.596                  0.5744685       -49.14507
1.6                    0.6798695       -56.21077
1.604                  0.7702967       -63.03868
1.608                  0.8445121       -69.58453
1.612                  0.9019913       -75.79424
1.616                   0.942971       -81.60604
1.62                    0.968469       -86.95236
1.624                  0.9802693         -91.763
1.628                  0.9808639       -95.97128
1.632                  0.9733342       -99.52408
1.636                  0.9611513       -102.3963
1.64                   0.9478779       -104.6085
1.644                  0.9367755       -106.2407
1.648                  0.9303672       -107.4358
1.652                  0.9300647        -108.383
1.656                  0.9359903       -109.2825
1.66                   0.9470781       -110.3049
1.664                  0.9614165       -111.5614
1.668                  0.9767128       -113.0939
1.672                  0.9907411       -114.8833
1.676                   1.001684        -116.866
1.68                    1.008348       -118.9529
1.684                   1.010257       -121.0449
1.688                   1.007652       -123.0458
1.692                    1.00141       -124.8731
1.696                  0.9928969       -126.4679
1.7                    0.9837576       -127.8033
1.704                  0.9756609       -128.8902
1.708                  0.9700273       -129.7777
1.712                  0.9677897       -130.5456
1.716                  0.9692399       -131.2894
1.72                    0.974005       -132.1005
1.724                  0.9811571       -133.0488
1.728                  0.9894214       -134.1718
1.732                  0.9974277       -135.4717
1.736                   1.003943         -136.92
1.74                    1.008057       -138.4659
1.744                    1.00929       -140.0463
1.748                   1.007642       -141.5954
1.752                   1.003564       -143.0538
1.756                  0.9978717       -144.3767
1.76                   0.9916158       -145.5403
1.764                  0.9859053        -146.546
1.768                   0.981724       -147.4211
1.772                  0.9797626       -148.2143
1.776                  0.9803019       -148.9866
1.78                    0.983176       -149.7993
1.784                   0.987822       -150.7026
1.788                  0.9934011       -151.7265
1.792                  0.9989618        -152.878
1.796                   1.003606       -154.1415
1.8                     1.006631       -155.4838
1.804                   1.007631       -156.8604
1.808                   1.006543       -158.2233
1.812                    1.00364       -159.5275
1.816                   0.999483        -160.738
1.82                   0.9948206       -161.8349
1.824                  0.9904665       -162.8167
1.828                  0.9871617        -163.701
1.832                  0.9854479       -164.5214
1.836                  0.9855768       -165.3216
1.84                   0.9874725       -166.1467
1.844                  0.9907576       -167.0353
1.848                  0.9948321       -168.0121
1.852                  0.9989888       -169.0852
1.856                   1.002538       -170.2454
1.86                    1.004922       -171.4694
1.864                   1.005794       -172.7243
1.868                   1.005071       -173.9732
1.872                    1.00293       -175.1809
1.876                  0.9997761       -176.3192
1.88                   0.9961725       -177.3715
1.884                  0.9927426       -178.3349
1.888                  0.9900667       -179.2216
1.892                  0.9885821         179.944
1.896                  0.9885102        179.1291
1.9                    0.9898232        178.2989
1.904                  0.9922563         177.423
1.908                  0.9953638        176.4806
1.912                  0.9986029        175.4638
1.916                   1.001431        174.3778
1.92                    1.003395        173.2394
1.924                   1.004201        172.0738
1.928                   1.003758        170.9096
1.932                   1.002179         169.775
1.936                  0.9997649        168.6928
1.94                    0.996943        167.6773
1.944                  0.9941996        166.7318
1.948                  0.9919956        165.8483
1.952                  0.9906882        165.0085
1.956                  0.9904719        164.1875
1.96                   0.9913494        163.3583
1.964                  0.9931363        162.4967
1.968                  0.9955008        161.5852
1.972                  0.9980261        160.6163
1.976                   1.000284        159.5925
1.98                    1.001909         158.526
1.984                   1.002652        157.4354
1.988                   1.002418        156.3431
1.992                   1.001275        155.2714
1.996                   0.999439        154.2389
2                      0.9972326        153.2577
2.004                  0.9950304        152.3315
2.008                  0.9931956        151.4552
2.012                  0.9920184        150.6157
2.016                  0.9916702        149.7946
2.02                   0.9921761         148.971
2.024                  0.9934177        148.1258
2.028                   0.995157        147.2447
2.032                  0.9970833        146.3202
2.036                  0.9988683         145.353
2.04                     1.00022        144.3509
2.044                   1.000929        143.3274
2.048                   1.000899         142.299
2.052                   1.000159        141.2829
2.056                  0.9988474        140.2938
2.06                   0.9971933        139.3419
2.064                   0.995471        138.4314
2.068                  0.9939561          137.56
2.072                  0.9928791        136.7193
2.076                  0.9923899        135.8964
2.08                   0.9925365        135.0764
2.084                  0.9932605        134.2448
2.088                  0.9944124        133.3898
2.092                  0.9957811        132.5045
2.096                   0.997131        131.5875
2.1                    0.9982405        130.6423
2.104                  0.9989373        129.6775
2.108                  0.9991213        128.7039
2.112                  0.9987765        127.7336
2.116                  0.9979684        126.7778
2.12                     0.99683        125.8451
2.124                  0.9955371        124.9404
2.128                  0.9942799        124.0643
2.132                  0.9932333        123.2133
2.136                  0.9925308        122.3802
2.14                   0.9922469        121.5558
2.144                  0.9923902        120.7304
2.148                  0.9929049        119.8947
2.152                  0.9936842        119.0418
2.156                  0.9945891        118.1678
2.16                   0.9954694        117.2718
2.164                  0.9961862        116.3563
2.168                  0.9966293        115.4263
2.172                  0.9967294        114.4885
2.176                  0.9964649        113.5503
2.18                   0.9958616         112.619
2.184                  0.9949867        111.7006
2.188                  0.9939398        110.7995
2.192                  0.9928387        109.9177
2.196                  0.9918061        109.0547
2.2                    0.9909549        108.2078
2.204                  0.9903754        107.3719
2.208                  0.9901239        106.5405
2.212                  0.9902163        105.7062
2.216                  0.9906238        104.8616
2.22                   0.9912752        104.0001
2.224                  0.9920624        103.1168
2.228                  0.9928522        102.2093
2.232                  0.9935009        101.2779
2.236                  0.9938717        100.3259
2.24                   0.9938543        99.35934
2.244                  0.9933818        98.38651
2.248                  0.9924448         97.4168
2.252                  0.9910982        96.45968
2.256                  0.9894611        95.52317
2.26                   0.9877058        94.61243
2.264                  0.9860369        93.72854
2.268                  0.9846637        92.86776
2.272                  0.9837661        92.02145
2.276                  0.9834614        91.17687
2.28                   0.9837779        90.31872
2.284                  0.9846403        89.43142
2.288                  0.9858707        88.50167
2.292                  0.9872086        87.52078
2.296                  0.9883459        86.48641
2.3                    0.9889723         85.4033
2.304                  0.9888274        84.28315
2.308                  0.9877464        83.14303
2.312                  0.9856969        82.00315
2.316                  0.9827967        80.88371
2.32                   0.9793096        79.80155
2.324                  0.9756166         78.7665
2.328                   0.972162        77.77871
2.332                  0.9693812        76.82686
2.336                  0.9676211        75.88862
2.34                   0.9670654        74.93292
2.344                  0.9676827        73.92469
2.348                  0.9692086        72.83042
2.352                  0.9711697        71.62399