! TOUCHSTONE file generated by CST MICROWAVE STUDIO
! Date and time: Tue Jun 14 12:33:49 2022
! Project name: AppElm_antenne_patch_FR4.cst
! Parameters = {L=45; W=58.5; e=0.035; h=1.6; lambda=0.190476; ls=120; w0=2.54; w1=0.8893; ws=120; y0=18; y1=23.8}
! Header version: 2018
! Port assignment regex: !\s*Touchstone port\s*([0-9]+)\s*=\s*(CST MWS port|CST DS port)\s*([0-9]+|Zmin|Zmax)\s*\(\"(.*)\"\)(\s*mode\s*([0-9]+))?.*
! Touchstone port assignment:
! Touchstone port 1 = CST MWS port 1 ("")
# GHz S MA R 50
0                      0.9873939              -0
0.004                  0.9881368       -9.974214
0.008                   0.990264       -19.85571
0.012                  0.9934864       -29.55656
0.016                  0.9973715       -38.99765
0.02                    1.001408       -48.11123
0.024                   1.005078       -56.84205
0.028                   1.007927       -65.14729
0.032                   1.009624       -72.99578
0.036                   1.009998       -80.36708
0.04                    1.009056       -87.25076
0.044                    1.00698       -93.64618
0.048                   1.004095        -99.5625
0.052                   1.000828       -105.0189
0.056                  0.9976448       -110.0445
0.06                   0.9949825       -114.6775
0.064                  0.9931904       -118.9635
0.068                  0.9924792       -122.9523
0.072                  0.9928931       -126.6943
0.076                  0.9943096       -130.2363
0.08                   0.9964641       -133.6178
0.084                  0.9989968       -136.8687
0.088                   1.001511       -140.0079
0.092                   1.003635       -143.0443
0.096                   1.005072       -145.9776
0.1                     1.005644       -148.8017
0.104                    1.00531       -151.5074
0.108                   1.004166       -154.0852
0.112                   1.002427       -156.5286
0.116                   1.000389       -158.8361
0.12                   0.9983848       -161.0125
0.124                  0.9967287       -163.0696
0.128                  0.9956695       -165.0251
0.132                  0.9953529       -166.9005
0.136                  0.9958002       -168.7187
0.14                   0.9969093       -170.5007
0.144                  0.9984765       -172.2632
0.148                   1.000232       -174.0167
0.152                   1.001887       -175.7645
0.156                   1.003179       -177.5033
0.16                    1.003913       -179.2246
0.164                   1.003991        179.0838
0.168                   1.003422        177.4348
0.172                   1.002317          175.84
0.176                   1.000873        174.3073
0.18                   0.9993347        172.8398
0.184                  0.9979578        171.4345
0.188                  0.9969649        170.0832
0.192                  0.9965102         168.773
0.196                  0.9966548        167.4888
0.2                    0.9973588        166.2153
0.204                  0.9984906        164.9399
0.208                  0.9998501         163.654
0.212                   1.001205        162.3544
0.216                   1.002331        161.0435
0.22                    1.003044        159.7285
0.224                   1.003235        158.4198
0.228                   1.002883        157.1296
0.232                   1.002056        155.8692
0.236                   1.000901        154.6472
0.24                   0.9996164        153.4686
0.244                  0.9984198        152.3329
0.248                  0.9975114        151.2351
0.252                  0.9970399        150.1656
0.256                  0.9970774        149.1124
0.26                   0.9976095         148.063
0.264                  0.9985372         147.006
0.268                  0.9996968        145.9338
0.272                   1.000888        144.8432
0.276                   1.001907        143.7356
0.28                    1.002585        142.6172
0.284                    1.00281        141.4974
0.288                   1.002551        140.3871
0.292                   1.001857        139.2971
0.296                   1.000849        138.2361
0.3                     0.999702        137.2091
0.304                  0.9986135         136.217
0.308                  0.9977686        135.2556
0.312                  0.9973101        134.3172
0.316                  0.9973134         133.391
0.32                   0.9977736        132.4657
0.324                  0.9986072         131.531
0.328                  0.9996675        130.5794
0.332                   1.000771        129.6077
0.336                   1.001726        128.6173
0.34                    1.002373        127.6135
0.344                   1.002601        126.6053
0.348                   1.002375        125.6028
0.352                   1.001736        124.6165
0.356                   1.000796        123.6549
0.36                   0.9997181        122.7232
0.364                  0.9986892        121.8222
0.368                  0.9978869        120.9487
0.372                  0.9974498        120.0951
0.376                  0.9974523        119.2516
0.38                   0.9978921        118.4072
0.384                  0.9986915        117.5521
0.388                  0.9997102        116.6792
0.392                   1.000771        115.7853
0.396                   1.001689        114.8717
0.4                     1.002307        113.9437
0.404                   1.002519        113.0099
0.408                   1.002289        112.0804
0.412                   1.001658        111.1654
0.416                   1.000736        110.2732
0.42                    0.999682         109.409
0.424                  0.9986808        108.5737
0.428                  0.9979063        107.7639
0.432                   0.997494        106.9723
0.436                  0.9975161         106.189
0.44                   0.9979684        105.4034
0.444                  0.9987715        104.6058
0.448                  0.9997848        103.7892
0.452                   1.000831        102.9507
0.456                   1.001727        102.0917
0.46                    1.002317        101.2178
0.464                   1.002498        100.3376
0.468                   1.002238        99.46147
0.472                   1.001581        98.59945
0.476                   1.000641        97.75984
0.48                   0.9995812        96.94761
0.484                  0.9985863        96.16345
0.488                  0.9978311        95.40371
0.492                  0.9974486        94.66083
0.496                   0.997507        93.92475
0.5                    0.9979968        93.18466
0.504                  0.9988322        92.43091
0.508                  0.9998667        91.65678
0.512                   1.000918        90.85958
0.516                   1.001803        90.04116
0.52                    1.002364         89.2075
0.524                   1.002502        88.36762
0.528                   1.002191        87.53211
0.532                   1.001484        86.71127
0.536                   1.000501        85.91333
0.54                   0.9994142        85.14298
0.544                  0.9984135        84.40058
0.548                  0.9976755         83.6819
0.552                  0.9973316        82.97887
0.556                  0.9974442        82.28098
0.56                    0.997995        81.57711
0.564                  0.9988878        80.85759
0.568                  0.9999661        80.11585
0.572                    1.00104        79.34964
0.576                   1.001919        78.56138
0.58                    1.002449         77.7577
0.584                   1.002533        76.94825
0.588                   1.002153        76.14409
0.592                   1.001375        75.35574
0.596                    1.00033        74.59143
0.6                    0.9992024        73.85553
0.604                  0.9981893        73.14783
0.608                  0.9974709        72.46337
0.612                  0.9971767        71.79333
0.616                  0.9973615        71.12651
0.62                    0.997995        70.45137
0.624                  0.9989671        69.75812
0.628                   1.000107        69.04046
0.632                   1.001214        68.29668
0.636                   1.002091        67.52998
0.64                    1.002582        66.74783
0.644                   1.002598         65.9607
0.648                   1.002131        65.18024
0.652                   1.001261        64.41735
0.656                   1.000136        63.68014
0.66                   0.9989545        62.97263
0.664                  0.9979239        62.29385
0.668                  0.9972288         61.6379
0.672                  0.9969958        60.99499
0.676                  0.9972696        60.35309
0.68                   0.9980052        59.70009
0.684                  0.9990744        59.02612
0.688                   1.000289        58.32515
0.692                   1.001435        57.59623
0.696                   1.002307        56.84346
0.7                     1.002749        56.07541
0.704                   1.002679        55.30353
0.708                   1.002104        54.54023
0.712                    1.00112        53.79673
0.716                  0.9998973        53.08112
0.72                   0.9986497        52.39685
0.724                  0.9975983        51.74204
0.728                  0.9969318        51.10964
0.732                  0.9967727        50.48867
0.736                  0.9971535         49.8661
0.74                   0.9980104        49.22922
0.744                   0.999194        48.56801
0.748                   1.000495        47.87689
0.752                   1.001683        47.15574
0.756                   1.002546        46.40988
0.76                    1.002926        45.64911
0.764                    1.00275        44.88607
0.768                   1.002045        44.13399
0.772                   1.000927        43.40451
0.776                  0.9995892        42.70557
0.78                   0.9982666        42.03998
0.784                  0.9971942        41.40469
0.788                  0.9965655        40.79132
0.792                  0.9964971        40.18746
0.796                  0.9970066        39.57891
0.8                    0.9980072        38.95231
0.804                  0.9993242        38.29753
0.808                   1.000725        37.60956
0.812                   1.001959         36.8893
0.816                   1.002806        36.14348
0.82                     1.00311        35.38339
0.824                    1.00281        34.62297
0.828                   1.001951        33.87645
0.832                   1.000678        33.15588
0.836                  0.9992101        32.46901
0.84                   0.9978054        31.81779
0.844                  0.9967148        31.19785
0.848                  0.9961367        30.59914
0.852                  0.9961798        30.00764
0.856                  0.9968428        29.40785
0.86                   0.9980129        28.78563
0.864                   0.999485        28.13085
0.868                   1.000999        27.43915
0.872                   1.002284        26.71273
0.876                   1.003109        25.95993
0.88                    1.003321        25.19378
0.884                   1.002873        24.42974
0.888                   1.001836        23.68312
0.892                   1.000384        22.96642
0.896                  0.9987679        22.28709
0.9                    0.9972734        21.64606
0.904                  0.9961681        21.03737
0.908                  0.9956548        20.44905
0.912                  0.9958326        19.86519
0.916                  0.9966775        19.26879
0.92                   0.9980451        18.64491
0.924                  0.9996959        17.98343
0.928                   1.001337        17.28084
0.932                   1.002676        16.54087
0.936                    1.00347        15.77376
0.94                     1.00357        14.99452
0.944                   1.002947        14.22038
0.948                     1.0017        13.46786
0.952                    1.00004        12.74994
0.956                  0.9982537        12.07368
0.96                   0.9966577         11.4388
0.964                  0.9955393        10.83744
0.968                  0.9951056        10.25538
0.972                  0.9954433        9.674512
0.976                  0.9965017        9.076126
0.98                   0.9980992        8.444385
0.984                  0.9999555         7.76924
0.988                   1.001741        7.048221
0.992                   1.003137        6.286841
0.996                   1.003889         5.49759
1                       1.003851        4.697793
1.004                   1.003019        3.906696
1.008                   1.001523        3.142238
1.012                  0.9996166        2.417931
1.016                  0.9976305        1.740376
1.02                   0.9959162        1.107821
1.024                  0.9947841       0.5101679
1.028                  0.9944458     -0.06946154
1.032                  0.9949733      -0.6517631
1.036                  0.9962834       -1.257451
1.04                   0.9981507         -1.9034
1.044                   1.000247       -2.599539
1.048                   1.002201       -3.347094
1.052                   1.003661       -4.138431
1.056                   1.004358       -4.958421
1.06                    1.004155       -5.787014
1.064                    1.00307       -6.602564
1.068                   1.001276       -7.385464
1.072                  0.9990757       -8.121537
1.076                    0.99685       -8.804732
1.08                   0.9949938        -9.43852
1.084                  0.9938451       -10.03567
1.088                  0.9936212       -10.61632
1.092                  0.9943764        -11.2042
1.096                  0.9959893       -11.82247
1.1                    0.9981819       -12.48926
1.104                   1.000569       -13.21438
1.108                   1.002726       -13.99756
1.112                   1.004264       -14.82869
1.116                   1.004898        -15.6894
1.12                    1.004496       -16.55642
1.124                   1.003106        -17.4052
1.128                   1.000949       -18.21398
1.132                  0.9983883       -18.96778
1.136                  0.9958671       -19.66111
1.14                   0.9938337       -20.29947
1.144                  0.9926607       -20.89892
1.148                  0.9925738       -21.48345
1.152                  0.9936071       -22.08074
1.156                  0.9955929       -22.71696
1.16                    0.998189       -23.41185
1.164                    1.00094       -24.17513
1.168                   1.003355       -25.00481
1.172                   1.004999       -25.88769
1.176                   1.005562       -26.80162
1.18                    1.004918        -27.7192
1.184                   1.003149       -28.61219
1.188                   1.000537       -29.45616
1.192                  0.9975175        -30.2348
1.196                   0.994614       -30.94317
1.2                    0.9923435       -31.58923
1.204                  0.9911254       -32.19305
1.208                  0.9911995       -32.78363
1.212                  0.9925774       -33.39365
1.216                  0.9950345       -34.05331
1.22                   0.9981485       -34.78459
1.224                   1.001372       -35.59729
1.228                   1.004132       -36.48736
1.232                   1.005925       -37.43786
1.236                   1.006409       -38.42177
1.24                    1.005462       -39.40644
1.244                   1.003204       -40.35872
1.248                  0.9999898       -41.25039
1.252                  0.9963532       -42.06314
1.256                  0.9929211       -42.79236
1.26                   0.9903059        -43.4489
1.264                  0.9889947       -44.05803
1.268                  0.9892526       -44.65543
1.272                   0.991067       -45.28062
1.276                  0.9941424       -45.96952
1.28                   0.9979503       -46.74746
1.284                   1.001822       -47.62471
1.288                   1.005065       -48.59486
1.292                   1.007085       -49.63614
1.296                   1.007485       -50.71513
1.3                     1.006135       -51.79202
1.304                   1.003206       -52.82677
1.308                  0.9991445       -53.78545
1.312                  0.9946155       -54.64633
1.316                  0.9903933       -55.40458
1.32                   0.9872314       -56.07449
1.324                  0.9857227       -56.68838
1.328                  0.9861812       -57.29141
1.332                  0.9885716       -57.93334
1.336                  0.9925059       -58.65876
1.34                   0.9973081       -59.49863
1.344                   1.002132       -60.46464
1.348                    1.00611        -61.5476
1.352                   1.008501       -62.71932
1.356                   1.008812       -63.93744
1.36                    1.006892       -65.15175
1.364                    1.00296       -66.31161
1.368                  0.9975922       -67.37377
1.372                  0.9916409       -68.31015
1.376                  0.9861087       -69.11406
1.38                   0.9819774       -69.80389
1.384                  0.9800259        -70.4221
1.388                  0.9806696       -71.02884
1.392                  0.9838634       -71.69071
1.396                  0.9890914       -72.46756
1.4                    0.9954531       -73.40081
1.404                    1.00182       -74.50603
1.408                   1.007029        -75.7711
1.412                   1.010079       -77.15898
1.416                   1.010295       -78.61379
1.42                    1.007442       -80.06876
1.424                   1.001785       -81.45534
1.428                  0.9940744       -82.71304
1.432                  0.9854641       -83.79998
1.436                  0.9773488       -84.70282
1.44                   0.9711382       -85.44372
1.444                  0.9679941       -86.08138
1.448                  0.9685821       -86.70336
1.452                  0.9729038       -87.40994
1.456                  0.9802605       -88.29356
1.46                   0.9893613       -89.42026
1.464                  0.9985455       -90.81822
1.468                   1.006062       -92.47512
1.472                   1.010346       -94.34238
1.476                   1.010264        -96.3433
1.48                    1.005288       -98.38287
1.484                  0.9956081       -100.3584
1.488                  0.9821729       -102.1716
1.492                  0.9666267        -103.744
1.496                  0.9511431       -105.0347
1.5                    0.9381211       -106.0602
1.504                  0.9297546       -106.9075
1.508                  0.9275419       -107.7323
1.512                  0.9318598       -108.7351
1.516                  0.9417556       -110.1209
1.52                   0.9550306       -112.0584
1.524                  0.9685713       -114.6547
1.528                  0.9787971       -117.9519
1.532                   0.982093       -121.9395
1.536                  0.9751532       -126.5725
1.54                   0.9552181       -131.7887
1.544                   0.920219       -137.5207
1.548                  0.8688549       -143.7048
1.552                  0.8006185       -150.2866
1.556                  0.7157864        -157.227
1.56                   0.6153802       -164.5117
1.564                  0.5011056       -172.1765
1.568                   0.375284        179.6113
1.572                  0.2408238        170.1838
1.576                  0.1018217         154.925
1.58                  0.04991258        9.114417
1.584                  0.1873875       -19.38887
1.588                  0.3241974       -29.89435
1.592                  0.4536816       -38.44602
1.596                  0.5726617        -46.3012
1.6                    0.6786019       -53.73931
1.604                  0.7695595        -60.8312
1.608                  0.8442482       -67.57779
1.612                  0.9021028       -73.94825
1.616                  0.9433261       -79.89369
1.62                   0.9689096        -85.3538
1.624                   0.980622       -90.26227
1.628                  0.9809543       -94.55391
1.632                  0.9730048       -98.17529
1.636                  0.9602842       -101.0999
1.64                   0.9464177       -103.3465
1.644                  0.9347476       -104.9943
1.648                   0.927884        -106.188
1.652                  0.9273126       -107.1208
1.656                  0.9331989       -107.9999
1.66                   0.9444783       -109.0027
1.664                  0.9592023       -110.2463
1.668                  0.9750157       -111.7757
1.672                  0.9896189       -113.5728
1.676                   1.001122       -115.5733
1.68                    1.008267       -117.6863
1.684                   1.010529       -119.8102
1.688                   1.008117       -121.8461
1.692                   1.001899       -123.7083
1.696                  0.9932498       -125.3346
1.7                    0.9838483        -126.695
1.704                  0.9754154       -127.7979
1.708                  0.9694375       -128.6913
1.712                  0.9669137       -129.4557
1.716                  0.9681919        -130.189
1.72                   0.9729315       -130.9864
1.724                  0.9802089        -131.922
1.728                  0.9887278       -133.0367
1.732                  0.9970744       -134.3352
1.736                   1.003961       -135.7899
1.74                     1.00842       -137.3498
1.744                   1.009922       -138.9507
1.748                   1.008425       -140.5246
1.752                   1.004358       -142.0096
1.756                   0.998536       -143.3576
1.76                   0.9920271       -144.5418
1.764                  0.9859806       -145.5612
1.768                  0.9814346       -146.4414
1.772                  0.9791406        -147.231
1.776                  0.9794342       -147.9924
1.78                   0.9821897         -148.79
1.784                  0.9868602       -149.6773
1.788                  0.9925985       -150.6881
1.792                  0.9984222       -151.8317
1.796                   1.003387       -153.0945
1.8                     1.006738       -154.4435
1.804                   1.008015       -155.8337
1.808                   1.007111       -157.2154
1.812                   1.004273       -158.5413
1.816                   1.000047       -159.7735
1.82                   0.9951967       -160.8889
1.824                  0.9905654       -161.8837
1.828                  0.9869416       -162.7735
1.832                  0.9849235       -163.5915
1.836                  0.9848168       -164.3823
1.84                   0.9865881       -165.1934
1.844                  0.9898819       -166.0665
1.848                  0.9940973       -167.0297
1.852                  0.9985033       -168.0938
1.856                   1.002369       -169.2517
1.86                    1.005085       -170.4809
1.864                   1.006253       -171.7482
1.868                   1.005741       -173.0153
1.872                   1.003694       -174.2446
1.876                   1.000502       -175.4053
1.88                   0.9967322       -176.4775
1.884                  0.9930371       -177.4557
1.888                  0.9900412         -178.35
1.892                  0.9882371       -179.1841
1.896                  0.9879016       -179.9915
1.9                     0.989053        179.1912
1.904                  0.9914543        178.3305
1.908                   0.994664        177.4022
1.912                  0.9981214        176.3955
1.916                   1.001246        175.3134
1.92                    1.003533        174.1714
1.924                   1.004636        172.9948
1.928                   1.004412        171.8134
1.932                   1.002939        170.6576
1.936                   1.000496        169.5532
1.94                   0.9975136        168.5175
1.944                  0.9945041        167.5567
1.948                  0.9919715        166.6651
1.952                   0.990329        165.8253
1.956                  0.9898288         165.012
1.96                   0.9905231        164.1963
1.964                  0.9922596         163.351
1.968                  0.9947152        162.4553
1.972                  0.9974577        161.4984
1.976                   1.000022        160.4803
1.98                    1.001991        159.4116
1.984                   1.003057         158.311
1.988                   1.003073        157.2019
1.992                   1.002063        156.1088
1.996                   1.000221        155.0532
2                      0.9978692        154.0507
2.004                  0.9954053         153.108
2.008                  0.9932366        152.2225
2.012                  0.9917113        151.3823
2.016                  0.9910615        150.5685
2.02                   0.9913663        149.7586
2.024                  0.9925429        148.9305
2.028                  0.9943666        148.0662
2.032                  0.9965127         147.155
2.036                  0.9986157        146.1946
2.04                     1.00033        145.1911
2.044                   1.001386        144.1576
2.048                   1.001627        143.1119
2.052                   1.001036        142.0733
2.056                  0.9997242        141.0598
2.06                   0.9979191        140.0852
2.064                  0.9959182        139.1571
2.068                  0.9940428        138.2757
2.072                  0.9925854         137.434
2.076                  0.9917615        136.6191
2.08                   0.9916779        135.8141
2.084                  0.9923171        135.0015
2.088                  0.9935462        134.1658
2.092                  0.9951415         133.296
2.096                  0.9968292        132.3877
2.1                    0.9983309        131.4425
2.104                  0.9994068        130.4682
2.108                  0.9998923         129.477
2.112                  0.9997188        128.4834
2.116                  0.9989213        127.5019
2.12                   0.9976285        126.5452
2.124                  0.9960405        125.6217
2.128                   0.994397        124.7352
2.132                  0.9929387        123.8835
2.136                  0.9918711        123.0594
2.14                   0.9913341        122.2521
2.144                  0.9913823        121.4481
2.148                  0.9919797        120.6344
2.152                  0.9930076        119.7996
2.156                  0.9942864        118.9361
2.16                    0.995603        118.0409
2.164                  0.9967445        117.1159
2.168                  0.9975272         116.167
2.172                  0.9978227        115.2039
2.176                  0.9975739        114.2377
2.18                   0.9968012          113.28
2.184                   0.995598        112.3412
2.188                  0.9941176        111.4288
2.192                  0.9925511        110.5467
2.196                   0.991102        109.6945
2.2                    0.9899565        108.8673
2.204                  0.9892589        108.0566
2.208                  0.9890897        107.2511
2.212                  0.9894539        106.4388
2.216                  0.9902786        105.6078
2.22                   0.9914221         104.749
2.224                  0.9926923        103.8564
2.228                  0.9938718         102.929
2.232                  0.9947483        101.9701
2.236                  0.9951435        100.9875
2.24                   0.9949394        99.99209
2.244                  0.9940978        98.99704
2.248                  0.9926697        98.01557
2.252                  0.9907928        97.05927
2.256                  0.9886784        96.13622
2.26                   0.9865839        95.24952
2.264                  0.9847788        94.39626
2.268                  0.9835031        93.56737
2.272                  0.9829271        92.74849
2.276                   0.983119        91.92172
2.28                   0.9840259        91.06826
2.284                  0.9854722        90.17136
2.288                  0.9871801        89.21901
2.292                  0.9888048        88.20614
2.296                  0.9899861        87.13561
2.3                    0.9904016        86.01824
2.304                  0.9898212        84.87137
2.308                  0.9881486        83.71674
2.312                  0.9854473        82.57738
2.316                  0.9819445        81.47403
2.32                   0.9780091        80.42144
2.324                  0.9741049        79.42511
2.328                  0.9707217        78.47885
2.332                  0.9682933        77.56424
2.336                  0.9671136        76.65212
2.34                   0.9672707        75.70651
2.344                  0.9686105        74.69015
2.348                  0.9707401        73.57075
2.352                  0.9730757        72.32649