! TOUCHSTONE file generated by CST MICROWAVE STUDIO
! Date and time: Tue Jun 14 12:33:43 2022
! Project name: AppElm_antenne_patch_FR4.cst
! Parameters = {L=45; W=58.5; e=0.035; h=1.6; lambda=0.190476; ls=120; w0=2.54; w1=0.6352; ws=120; y0=18; y1=23.8}
! Header version: 2018
! Port assignment regex: !\s*Touchstone port\s*([0-9]+)\s*=\s*(CST MWS port|CST DS port)\s*([0-9]+|Zmin|Zmax)\s*\(\"(.*)\"\)(\s*mode\s*([0-9]+))?.*
! Touchstone port assignment:
! Touchstone port 1 = CST MWS port 1 ("")
# GHz S MA R 50
0                      0.9873381              -0
0.004                  0.9880884       -9.977398
0.008                  0.9902363       -19.86092
0.012                  0.9934878       -29.56159
0.016                  0.9974039       -38.99941
0.02                    1.001466       -48.10599
0.024                    1.00515       -56.82565
0.028                   1.007998       -65.11536
0.032                   1.009677       -72.94386
0.036                    1.01002       -80.29086
0.04                    1.009039       -87.14619
0.044                   1.006922       -93.50957
0.048                   1.004005       -99.39074
0.052                   1.000721       -104.8095
0.056                  0.9975384       -109.7959
0.06                   0.9948987       -114.3889
0.064                  0.9931479       -118.6348
0.068                  0.9924895       -122.5843
0.072                  0.9929592       -126.2879
0.076                  0.9944238       -129.7927
0.08                   0.9966098       -133.1379
0.084                  0.9991508       -136.3531
0.088                   1.001648       -139.4567
0.092                   1.003731       -142.4567
0.096                    1.00511       -145.3528
0.1                     1.005617       -148.1385
0.104                   1.005222       -150.8043
0.108                   1.004031       -153.3412
0.112                   1.002268        -155.743
0.116                   1.000234       -158.0087
0.12                   0.9982621       -160.1441
0.124                  0.9966614       -162.1615
0.128                  0.9956714       -164.0789
0.132                  0.9954256       -165.9183
0.136                  0.9959321       -167.7023
0.14                   0.9970784       -169.4516
0.144                  0.9986534       -171.1823
0.148                   1.000386       -172.9041
0.152                   1.001989       -174.6195
0.156                   1.003211       -176.3247
0.16                    1.003869       -178.0108
0.164                   1.003876       -179.6656
0.168                   1.003255        178.7234
0.172                   1.002127        177.1673
0.176                   1.000692        175.6734
0.18                   0.9991956        174.2437
0.184                  0.9978852        172.8749
0.188                  0.9969722        171.5579
0.192                  0.9965965        170.2799
0.196                   0.996805        169.0258
0.2                    0.9975462        167.7811
0.204                   0.998681        166.5336
0.208                   1.000009        165.2757
0.212                   1.001303        164.0051
0.216                   1.002349        162.7247
0.22                    1.002978        161.4419
0.224                   1.003095        160.1674
0.228                   1.002692        158.9125
0.232                   1.001848        157.6881
0.236                   1.000712        156.5021
0.24                   0.9994805        155.3583
0.244                  0.9983619        154.2557
0.248                  0.9975425        153.1886
0.252                  0.9971553        152.1475
0.256                  0.9972572        151.1207
0.26                   0.9978214        150.0961
0.264                  0.9987436        149.0635
0.268                  0.9998598        148.0161
0.272                   1.000978        146.9514
0.276                   1.001907        145.8716
0.28                    1.002493        144.7831
0.284                   1.002643         143.695
0.288                   1.002337        142.6177
0.292                   1.001633        141.5613
0.296                   1.000656        140.5334
0.3                    0.9995757        139.5383
0.304                   0.998577        138.5759
0.308                  0.9978298        137.6417
0.312                  0.9974592         136.728
0.316                  0.9975243        135.8244
0.32                   0.9980089        134.9203
0.324                  0.9988248        134.0066
0.328                  0.9998278        133.0767
0.332                   1.000844        132.1284
0.336                   1.001699        131.1634
0.34                    1.002248        130.1873
0.344                   1.002401        129.2087
0.348                   1.002134        128.2372
0.352                   1.001497        127.2822
0.356                   1.000602        126.3512
0.36                   0.9996054        125.4483
0.364                  0.9986789        124.5738
0.368                  0.9979825        123.7239
0.372                  0.9976354        122.8913
0.376                  0.9976952        122.0667
0.38                   0.9981494        121.2402
0.384                  0.9989166         120.403
0.388                  0.9998618        119.5491
0.392                   1.000821        118.6762
0.396                   1.001627         117.786
0.4                     1.002143        116.8839
0.404                   1.002281         115.978
0.408                    1.00202        115.0776
0.412                   1.001404        114.1918
0.416                   1.000544        113.3277
0.42                   0.9995875        112.4895
0.424                  0.9987016        111.6775
0.428                  0.9980405        110.8879
0.432                  0.9977185        110.1138
0.436                  0.9977912        109.3461
0.44                   0.9982445        108.5751
0.444                  0.9989985        107.7926
0.448                  0.9999205        106.9927
0.452                   1.000849        106.1733
0.456                   1.001623        105.3362
0.46                    1.002108        104.4868
0.464                    1.00222        103.6332
0.468                   1.001939        102.7847
0.472                   1.001315          101.95
0.476                   1.000455        101.1363
0.48                   0.9995099        100.3474
0.484                  0.9986437         99.5835
0.488                   0.998008        98.84071
0.492                  0.9977139        98.11203
0.496                  0.9978133        97.38834
0.5                    0.9982883        96.66014
0.504                  0.9990553        95.91916
0.508                  0.9999793        95.15984
0.512                   1.000898        94.38036
0.516                   1.001651        93.58281
0.52                    1.002105        92.77283
0.524                   1.002181        91.95864
0.528                   1.001864        91.14962
0.532                   1.001209        90.35461
0.536                   1.000327        89.58056
0.54                   0.9993737        88.83114
0.544                  0.9985146        88.10612
0.548                   0.997901        87.40138
0.552                  0.9976414        86.70953
0.556                  0.9977821        86.02124
0.56                   0.9982991         85.3269
0.564                  0.9991016        84.61829
0.568                   1.000049        83.89009
0.572                   1.000974         83.1408
0.576                   1.001714        82.37294
0.58                    1.002138         81.5926
0.584                   1.002169        80.80839
0.588                   1.001802        80.02991
0.592                   1.001097        79.26619
0.596                   1.000177        78.52402
0.6                    0.9992009        77.80676
0.604                  0.9983412        77.11381
0.608                  0.9977497        76.44051
0.612                  0.9975322        75.77891
0.616                  0.9977285         75.1193
0.62                   0.9983057        74.45179
0.624                  0.9991631        73.76818
0.628                    1.00015        73.06339
0.632                   1.001092        72.33636
0.636                   1.001823        71.59015
0.64                    1.002213        70.83152
0.644                    1.00219        70.06959
0.648                   1.001757        69.31444
0.652                   1.000985        68.57519
0.656                   1.000009        67.85857
0.66                   0.9989983        67.16765
0.664                  0.9981315        66.50119
0.668                  0.9975628        65.85383
0.672                  0.9973949        65.21698
0.676                  0.9976598        64.58029
0.68                    0.998313        63.93356
0.684                  0.9992407        63.26852
0.688                   1.000279        62.58037
0.692                   1.001245         61.8686
0.696                   1.001967        61.13703
0.7                     1.002316        60.39317
0.704                   1.002225         59.6469
0.708                   1.001708        58.90878
0.712                   1.000851        58.18819
0.716                  0.9998026        57.49179
0.72                   0.9987451        56.82218
0.724                  0.9978659        56.17741
0.728                  0.9973219        55.55129
0.732                  0.9972125        54.93429
0.736                  0.9975597        54.31537
0.74                   0.9983047        53.68387
0.744                  0.9993176        53.03148
0.748                   1.000419        52.35375
0.752                   1.001415        51.65079
0.756                   1.002126        50.92736
0.76                    1.002423        50.19191
0.764                    1.00225        49.45521
0.768                   1.001632        48.72843
0.772                   1.000671        48.02128
0.776                  0.9995349        47.34027
0.78                   0.9984209        46.68746
0.784                  0.9975267        46.06007
0.788                  0.9970128        45.45082
0.792                  0.9969737        44.84913
0.796                  0.9974202        44.24308
0.8                    0.9982758        43.62149
0.804                  0.9993909        42.97599
0.808                   1.000569        42.30252
0.812                   1.001599        41.60206
0.816                   1.002297        40.88038
0.82                    1.002535        40.14712
0.824                   1.002264        39.41405
0.828                   1.001526        38.69313
0.832                   1.000444        37.99437
0.836                  0.9992052        37.32413
0.84                   0.9980262        36.68384
0.844                  0.9971168        36.06968
0.848                  0.9966412        35.47307
0.852                  0.9966882         34.8822
0.856                  0.9972541         34.2841
0.86                   0.9982422        33.66701
0.864                  0.9994795        33.02248
0.868                   1.000747        32.34699
0.872                   1.001819        31.64247
0.876                   1.002502        30.91597
0.88                    1.002669        30.17847
0.884                   1.002283        29.44297
0.888                   1.001404         28.7223
0.892                    1.00018        28.02685
0.896                  0.9988219        27.36278
0.9                    0.9975687        26.73074
0.904                  0.9966439        26.12566
0.908                  0.9962158        25.53749
0.912                  0.9963664         24.9529
0.916                  0.9970746        24.35772
0.92                   0.9982195         23.7395
0.924                  0.9996005        23.08976
0.928                   1.000973        22.40559
0.932                   1.002092        21.69006
0.936                   1.002755        20.95174
0.94                    1.002837        20.20321
0.944                   1.002313        19.45888
0.948                   1.001267        18.73261
0.952                   0.999875        18.03522
0.956                  0.9983764        17.37264
0.96                   0.9970355        16.74458
0.964                  0.9960926        16.14452
0.968                  0.9957209        15.56061
0.972                  0.9959939        14.97776
0.976                  0.9968701        14.38038
0.98                   0.9981995        13.75518
0.984                  0.9997492         13.0937
0.988                   1.001245        12.39371
0.992                   1.002418         11.6597
0.996                   1.003054        10.90201
1                       1.003032        10.13508
1.004                   1.002343         9.37503
1.008                   1.001096        8.636914
1.012                  0.9995001        7.932119
1.016                  0.9978316        7.266259
1.02                   0.9963838        6.637986
1.024                  0.9954174        6.038996
1.028                  0.9951114        5.455314
1.032                  0.9955291        4.869737
1.036                  0.9966049        4.264944
1.04                    0.998154        3.626703
1.044                  0.9999049        2.946467
1.048                   1.001546        2.222911
1.052                   1.002784        1.462136
1.056                   1.003388          0.6766
1.06                    1.003241      -0.1169933
1.064                   1.002351      -0.9004883
1.068                   1.000859       -1.657334
1.072                  0.9990163       -2.375467
1.076                  0.9971389        -3.04957
1.08                   0.9955585       -3.682277
1.084                  0.9945601       -4.284006
1.088                  0.9943307       -4.871322
1.092                  0.9949223       -5.464035
1.096                  0.9962403       -6.081564
1.1                    0.9980581        -6.73942
1.104                   1.000057       -7.446207
1.108                   1.001881       -8.202256
1.112                   1.003201       -8.999448
1.116                   1.003771       -9.822867
1.12                    1.003473       -10.65298
1.124                   1.002338       -11.46916
1.128                   1.000546       -12.25289
1.132                  0.9983943       -12.99122
1.136                   0.996254       -13.67909
1.14                   0.9945025       -14.32065
1.144                  0.9934577        -14.9289
1.148                  0.9933175       -15.52362
1.152                  0.9941219       -16.12792
1.156                   0.995741       -16.76394
1.16                   0.9978969       -17.44878
1.164                   1.000211       -18.19132
1.168                   1.002272       -18.99071
1.172                   1.003706       -19.83651
1.176                   1.004242       -20.71055
1.18                    1.003761        -21.5899
1.184                   1.002321        -22.4506
1.188                   1.000145       -23.27167
1.192                  0.9975949       -24.03878
1.196                  0.9951074       -24.74704
1.2                    0.9931221       -25.40236
1.204                  0.9920008       -26.02095
1.208                  0.9919602       -26.62675
1.212                   0.993027       -27.24718
1.216                  0.9950291       -27.90805
1.22                   0.9976232       -28.62876
1.224                   1.000354        -29.4187
1.228                   1.002735       -30.27567
1.232                   1.004332       -31.18634
1.236                   1.004837        -32.1285
1.24                    1.004128       -33.07466
1.244                   1.002287       -33.99651
1.248                  0.9995983       -34.86949
1.252                  0.9965019       -35.67716
1.256                  0.9935257       -36.41448
1.26                   0.9911944       -37.08944
1.264                  0.9899351       -37.72238
1.268                  0.9899947        -38.3428
1.272                  0.9913892       -38.98413
1.276                  0.9938938       -39.67742
1.28                   0.9970791       -40.44554
1.284                   1.000386       -41.29899
1.288                   1.003221       -42.23412
1.292                   1.005062       -43.23386
1.296                   1.005547        -44.2707
1.3                     1.004534        -45.3109
1.304                   1.002139       -46.31989
1.308                  0.9987175       -47.26779
1.312                  0.9948197       -48.13459
1.316                  0.9911016       -48.91443
1.32                   0.9882151       -49.61765
1.324                   0.986689       -50.27012
1.328                  0.9868269       -50.90931
1.332                    0.98864       -51.57759
1.336                  0.9918367        -52.3142
1.34                   0.9958681       -53.14777
1.344                   1.000023        -54.0911
1.348                    1.00355       -55.13912
1.352                   1.005788       -56.26998
1.356                   1.006274       -57.44866
1.36                    1.004831       -58.63237
1.364                     1.0016       -59.77698
1.368                  0.9970351        -60.8438
1.372                  0.9918435       -61.80642
1.376                  0.9868779       -62.65635
1.38                   0.9829967       -63.40635
1.384                  0.9809069       -64.09019
1.388                  0.9810236       -64.75777
1.392                  0.9833762       -65.46629
1.396                  0.9875864       -66.26929
1.4                    0.9929267       -67.20623
1.404                  0.9984434       -68.29531
1.408                    1.00312       -69.53082
1.412                   1.006048       -70.88454
1.416                   1.006575       -72.31051
1.42                    1.004421       -73.75163
1.424                  0.9997348       -75.14766
1.428                   0.993096       -76.44399
1.432                  0.9854533        -77.6009
1.436                  0.9779942       -78.60215
1.44                   0.9719575       -79.46165
1.444                  0.9684101       -80.22503
1.448                  0.9680292       -80.96459
1.452                   0.970941       -81.76694
1.456                  0.9766635         -82.716
1.46                   0.9841706       -83.87667
1.464                  0.9920622       -85.28299
1.468                  0.9987965       -86.93386
1.472                   1.002937       -88.79487
1.476                   1.003374       -90.80461
1.48                   0.9995001       -92.88304
1.484                  0.9913238       -94.94106
1.488                  0.9795167       -96.89128
1.492                  0.9653795       -98.66116
1.496                  0.9507125       -100.2083
1.5                    0.9375762        -101.537
1.504                  0.9279425       -102.7107
1.508                  0.9232827       -103.8541
1.512                  0.9241826       -105.1384
1.516                   0.930108       -106.7505
1.52                    0.939399       -108.8585
1.524                  0.9494927       -111.5852
1.528                  0.9572822       -114.9992
1.532                  0.9595071       -119.1209
1.536                   0.953089       -123.9381
1.54                   0.9353837        -129.422
1.544                   0.904351       -135.5437
1.548                  0.8586593       -142.2885
1.552                  0.7977472       -149.6722
1.556                  0.7218596       -157.7659
1.56                   0.6320957       -166.7446
1.564                  0.5305291       -176.9974
1.568                  0.4206112        170.5825
1.572                  0.3086409        153.7255
1.576                   0.209855        126.1355
1.58                   0.1675944         78.3222
1.584                  0.2212536        33.01501
1.588                  0.3235836         7.46896
1.592                  0.4360824       -8.586257
1.596                  0.5454525       -20.66299
1.6                     0.645923        -30.7506
1.604                  0.7342354       -39.64448
1.608                  0.8084175        -47.6941
1.612                  0.8674465       -55.05566
1.616                   0.911147          -61.79
1.62                   0.9401529       -67.90616
1.624                  0.9558737       -73.38445
1.628                  0.9604352       -78.19207
1.632                  0.9565732       -82.29775
1.636                  0.9474601       -85.68798
1.64                   0.9364418       -88.38498
1.644                  0.9266853       -90.46229
1.648                  0.9207713       -92.05118
1.652                  0.9203185       -93.32975
1.656                  0.9257615       -94.49402
1.66                   0.9363727       -95.72017
1.664                  0.9505259       -97.13318
1.668                  0.9661073        -98.7929
1.672                  0.9809457       -100.6975
1.676                  0.9931672       -102.7978
1.68                    1.001436       -105.0147
1.684                   1.005078        -107.255
1.688                   1.004116        -109.424
1.692                   0.999218       -111.4368
1.696                  0.9915799       -113.2278
1.7                     0.982748       -114.7598
1.704                  0.9743855       -116.0308
1.708                  0.9680119       -117.0772
1.712                  0.9647492       -117.9691
1.716                  0.9651331       -118.7983
1.72                   0.9690373       -119.6602
1.724                  0.9757285       -120.6352
1.728                  0.9840399       -121.7742
1.732                  0.9926064       -123.0933
1.736                   1.000108       -124.5756
1.74                    1.005474       -126.1781
1.744                   1.008027       -127.8412
1.748                   1.007557       -129.4981
1.752                   1.004327       -131.0848
1.756                  0.9990188       -132.5476
1.76                   0.9926194       -133.8516
1.764                   0.986268       -134.9857
1.768                   0.981068       -135.9656
1.772                  0.9779045       -136.8324
1.776                    0.97729       -137.6451
1.78                   0.9792827       -138.4696
1.784                  0.9834885       -139.3661
1.788                  0.9891523       -140.3781
1.792                  0.9953081       -141.5255
1.796                   1.000953       -142.8038
1.8                     1.005214       -144.1868
1.804                   1.007478       -145.6327
1.808                   1.007471       -147.0914
1.812                   1.005287       -148.5119
1.816                   1.001364       -149.8496
1.82                   0.9964095       -151.0726
1.824                  0.9912856       -152.1671
1.828                  0.9868701       -153.1399
1.832                  0.9839081       -154.0179
1.836                   0.982885       -154.8436
1.84                   0.9839429       -155.6678
1.844                   0.986864       -156.5393
1.848                  0.9911193       -157.4964
1.852                  0.9959732       -158.5605
1.856                   1.000617       -159.7334
1.86                    1.004304       -160.9986
1.864                   1.006472       -162.3253
1.868                   1.006817       -163.6736
1.872                   1.005336       -165.0012
1.876                   1.002318       -166.2693
1.88                   0.9982988       -167.4482
1.884                  0.9939675       -168.5226
1.888                  0.9900595       -169.4937
1.892                  0.9872314       -170.3798
1.896                  0.9859492       -171.2135
1.9                    0.9864088       -172.0358
1.904                  0.9885047       -172.8883
1.908                  0.9918551       -173.8061
1.912                   0.995877       -174.8112
1.916                  0.9998919       -175.9096
1.92                    1.003242       -177.0915
1.924                   1.005396       -178.3334
1.928                   1.006031       -179.6029
1.932                   1.005073        179.1364
1.936                    1.00271        177.9196
1.94                   0.9993521        176.7745
1.944                  0.9955697         175.718
1.948                  0.9919992        174.7529
1.952                  0.9892375        173.8669
1.956                  0.9877413        173.0346
1.96                   0.9877471        172.2219
1.964                  0.9892337        171.3919
1.968                  0.9919284         170.512
1.972                  0.9953606        169.5594
1.976                  0.9989465        168.5247
1.98                    1.002091        167.4127
1.984                   1.004285         166.241
1.988                   1.005184        165.0366
1.992                   1.004658        163.8316
1.996                    1.00281         162.658
2                      0.9999557        161.5429
2.004                  0.9965735        160.5046
2.008                  0.9932262        159.5492
2.012                  0.9904693        158.6695
2.016                  0.9887578        157.8456
2.02                   0.9883677        157.0485
2.024                  0.9893487        156.2452
2.028                  0.9915183        155.4045
2.032                  0.9944964        154.5024
2.036                  0.9977744        153.5267
2.04                    1.000804        152.4776
2.044                   1.003085         151.368
2.048                    1.00425        150.2202
2.052                   1.004115        149.0627
2.056                   1.002708        147.9255
2.06                    1.000262        146.8357
2.064                  0.9971769        145.8129
2.068                  0.9939594        144.8668
2.072                  0.9911366        143.9945
2.076                  0.9891706        143.1811
2.08                   0.9883802        142.4019
2.084                  0.9888849        141.6268
2.088                  0.9905856        140.8253
2.092                   0.993183        139.9721
2.096                   0.996232        139.0516
2.1                    0.9992179        138.0597
2.104                   1.001643        137.0044
2.108                   1.003106        135.9042
2.112                   1.003364        134.7845
2.116                   1.002368        133.6738
2.12                     1.00027        132.5994
2.124                  0.9974022        131.5835
2.128                  0.9942197        130.6393
2.132                  0.9912329        129.7686
2.136                  0.9889235        128.9613
2.14                   0.9876635        128.1968
2.144                  0.9876501        127.4473
2.148                  0.9888728        126.6822
2.152                   0.991114        125.8743
2.156                  0.9939871        125.0037
2.16                   0.9970036        124.0615
2.164                  0.9996538        123.0506
2.168                   1.001488         121.985
2.172                    1.00219        120.8874
2.176                   1.001621        119.7855
2.18                   0.9998446        118.7079
2.184                   0.997117        117.6798
2.188                  0.9938488         116.719
2.192                  0.9905442        115.8331
2.196                    0.98772        115.0174
2.2                    0.9858227        114.2558
2.204                    0.98515        113.5222
2.208                  0.9857994        112.7856
2.212                  0.9876491         112.015
2.216                  0.9903758        111.1849
2.22                   0.9935101        110.2797
2.224                  0.9965119        109.2958
2.228                  0.9988591        108.2421
2.232                   1.000128        107.1383
2.236                    1.00006        106.0115
2.24                   0.9986011        104.8927
2.244                  0.9959157        103.8119
2.248                  0.9923638        102.7937
2.252                  0.9884524        101.8535
2.256                  0.9847604        100.9942
2.26                    0.981847        100.2048
2.264                  0.9801586         99.4618
2.268                  0.9799494         98.7322
2.272                  0.9812319        97.97902
2.276                  0.9837677        97.16762
2.28                   0.9871037        96.27173
2.284                  0.9906426        95.27773
2.288                  0.9937378        94.18662
2.292                  0.9957942        93.01363
2.296                  0.9963598        91.78576
2.3                    0.9951968        90.53777
2.304                   0.992323        89.30757
2.308                   0.988019        88.13073
2.312                  0.9827985        87.03503
2.316                  0.9773416        86.03559
2.32                   0.9723974         85.1308
2.324                  0.9686646        84.30091
2.328                  0.9666693         83.5094
2.332                  0.9666631        82.70792
2.336                  0.9685617        81.84423
2.34                   0.9719424        80.87102
2.344                     0.9761        79.75405
2.348                  0.9801513        78.47752
2.352                  0.9831672        77.04604