! TOUCHSTONE file generated by CST MICROWAVE STUDIO
! Date and time: Tue Jun 14 12:33:48 2022
! Project name: AppElm_antenne_patch_FR4.cst
! Parameters = {L=45; W=58.5; e=0.035; h=1.6; lambda=0.190476; ls=120; w0=2.54; w1=0.84695; ws=120; y0=18; y1=23.8}
! Header version: 2018
! Port assignment regex: !\s*Touchstone port\s*([0-9]+)\s*=\s*(CST MWS port|CST DS port)\s*([0-9]+|Zmin|Zmax)\s*\(\"(.*)\"\)(\s*mode\s*([0-9]+))?.*
! Touchstone port assignment:
! Touchstone port 1 = CST MWS port 1 ("")
# GHz S MA R 50
0                      0.9874802              -0
0.004                  0.9882204       -9.977273
0.008                  0.9903393       -19.86156
0.012                  0.9935477       -29.56468
0.016                  0.9974131        -39.0073
0.02                    1.001424       -48.12149
0.024                   1.005065       -56.85188
0.028                   1.007883       -65.15556
0.032                   1.009548       -73.00136
0.036                   1.009893       -80.36888
0.04                     1.00893       -87.24783
0.044                   1.006842       -93.63774
0.048                    1.00396       -99.54805
0.052                   1.000709       -104.9982
0.056                  0.9975551       -110.0178
0.06                   0.9949333       -114.6453
0.064                   0.993188       -118.9266
0.068                   0.992524       -122.9117
0.072                  0.9929788       -126.6509
0.076                  0.9944238       -130.1907
0.08                   0.9965904       -133.5705
0.084                  0.9991169       -136.8198
0.088                   1.001607        -139.957
0.092                   1.003692       -142.9906
0.096                   1.005083       -145.9203
0.1                     1.005607       -148.7397
0.104                   1.005231       -151.4397
0.108                   1.004059        -154.011
0.112                   1.002308       -156.4474
0.116                   1.000278       -158.7479
0.12                    0.998301       -160.9177
0.124                  0.9966868       -162.9691
0.128                  0.9956774       -164.9199
0.132                  0.9954102       -166.7919
0.136                  0.9958982       -168.6078
0.14                   0.9970324       -170.3883
0.144                  0.9986047       -172.1498
0.148                   1.000344       -173.9022
0.152                   1.001964       -175.6483
0.156                   1.003208       -177.3845
0.16                    1.003889        -179.102
0.164                   1.003917        179.2114
0.168                   1.003309        177.5684
0.172                   1.002184        175.9802
0.176                   1.000741        174.4544
0.18                   0.9992258        172.9935
0.184                  0.9978898         171.594
0.188                  0.9969491        170.2474
0.192                  0.9965488        168.9405
0.196                   0.996741        167.6583
0.2                    0.9974776         166.386
0.204                  0.9986211        165.1111
0.208                  0.9999699        163.8257
0.212                   1.001294         162.527
0.216                   1.002372         161.218
0.22                    1.003031        159.9061
0.224                    1.00317        158.6019
0.228                   1.002777        157.3171
0.232                   1.001927        156.0629
0.236                   1.000771        154.8475
0.24                   0.9995083        153.6751
0.244                  0.9983529         152.545
0.248                  0.9974977        151.4514
0.252                  0.9970823        150.3849
0.256                  0.9971695        149.3335
0.26                    0.997736        148.2846
0.264                   0.998677        147.2277
0.268                  0.9998263        146.1554
0.272                   1.000985        145.0652
0.276                   1.001956         143.959
0.28                    1.002578        142.8433
0.284                    1.00275        141.7274
0.288                   1.002448        140.6223
0.292                   1.001729        139.5382
0.296                    1.00072        138.4833
0.3                    0.9995949        137.4623
0.304                  0.9985477        136.4752
0.308                  0.9977568        135.5179
0.312                  0.9973549        134.5819
0.316                  0.9974077         133.657
0.32                   0.9979015        132.7318
0.324                  0.9987465        131.7966
0.328                  0.9997943        130.8446
0.332                   1.000862         129.873
0.336                   1.001768        128.8837
0.34                    1.002355        127.8823
0.344                   1.002528        126.8778
0.348                   1.002258        125.8802
0.352                   1.001595        124.8997
0.356                   1.000655        123.9441
0.36                   0.9996011         123.018
0.364                  0.9986158        122.1219
0.368                  0.9978695        121.2519
0.372                  0.9974904        120.4005
0.376                  0.9975429        119.5577
0.38                    0.998016        118.7131
0.384                  0.9988255        117.8571
0.388                  0.9998295        116.9834
0.392                   1.000853        116.0894
0.396                   1.001719        115.1766
0.4                     1.002279        114.2509
0.404                   1.002436        113.3206
0.408                   1.002165        112.3959
0.412                   1.001514        111.4865
0.416                   1.000596           110.6
0.42                   0.9995719        109.7412
0.424                   0.998619        108.9102
0.428                  0.9979043        108.1034
0.432                  0.9975526        107.3134
0.436                  0.9976251        106.5303
0.44                   0.9981093        105.7438
0.444                  0.9989198        104.9448
0.448                  0.9999148         104.127
0.452                    1.00092         103.288
0.456                   1.001761        102.4297
0.46                     1.00229        101.5578
0.464                   1.002415        100.6811
0.468                   1.002115        99.80956
0.472                    1.00144        98.95287
0.476                   1.000508        98.11871
0.48                   0.9994797        97.31144
0.484                  0.9985355        96.53121
0.488                  0.9978407        95.77399
0.492                  0.9975176        95.03211
0.496                  0.9976236        94.29566
0.5                    0.9981405        93.55424
0.504                  0.9989774        92.79878
0.508                  0.9999874         92.0232
0.512                   1.000993        91.22541
0.516                   1.001817        90.40767
0.52                    1.002314        89.57618
0.524                   1.002397        88.73992
0.528                   1.002048        87.90916
0.532                   1.001327        87.09369
0.536                   1.000358        86.30112
0.54                    0.999309        85.53553
0.544                  0.9983644         84.7967
0.548                  0.9976911         84.0801
0.552                  0.9974086         83.3776
0.556                  0.9975686        82.67888
0.56                   0.9981441        81.97325
0.564                  0.9990351        81.25167
0.568                   1.000085        80.50827
0.572                   1.001109        79.74138
0.576                   1.001926         78.9538
0.58                    1.002392        78.15234
0.584                   1.002423        77.34657
0.588                    1.00201        76.54714
0.592                   1.001224        75.76407
0.596                   1.000199        75.00487
0.6                    0.9991155        74.27332
0.604                  0.9981633        73.56866
0.608                  0.9975118        72.88565
0.612                  0.9972782        72.21546
0.616                  0.9975065        71.54717
0.62                   0.9981584        70.86978
0.624                  0.9991206        70.17414
0.628                   1.000223        69.45464
0.632                   1.001272        68.71018
0.636                   1.002082         67.9443
0.64                    1.002506        67.16461
0.644                   1.002468        66.38139
0.648                    1.00197        65.60587
0.652                   1.001097        64.84834
0.656                  0.9999974        64.11621
0.66                   0.9988647        63.41285
0.664                  0.9978987         62.7368
0.668                   0.997272        62.08191
0.672                  0.9970984        61.43843
0.676                  0.9974122        60.79469
0.68                   0.9981607         60.1392
0.684                  0.9992134        59.46275
0.688                   1.000385        58.76006
0.692                   1.001468        58.03069
0.696                   1.002271        57.27911
0.7                     1.002647        56.51392
0.704                   1.002529        55.74632
0.708                    1.00193        54.98821
0.712                   1.000953        54.25014
0.716                   0.999766        53.53948
0.72                   0.9985773        52.85904
0.724                  0.9975981        52.20645
0.728                  0.9970044        51.57448
0.732                  0.9969056        50.95229
0.736                  0.9973235        50.32727
0.74                   0.9981879        49.68741
0.744                  0.9993477        49.02343
0.748                   1.000598        48.33048
0.752                   1.001718        47.60897
0.756                   1.002507         46.8645
0.76                    1.002821        46.10684
0.764                   1.002599        45.34828
0.768                   1.001875         44.6015
0.772                   1.000769        43.87742
0.776                  0.9994732        43.18322
0.78                   0.9982145        42.52104
0.784                  0.9972161        41.88745
0.788                  0.9966586        41.27392
0.792                  0.9966451        40.66828
0.796                  0.9971825        40.05688
0.8                    0.9981794        39.42708
0.804                  0.9994607        38.76957
0.808                     1.0008        38.08003
0.812                   1.001958         37.3599
0.816                   1.002726        36.61608
0.82                    1.002963        35.85976
0.824                   1.002621        35.10446
0.828                    1.00175        34.36372
0.832                   1.000499        33.64884
0.836                  0.9990833        32.96675
0.84                   0.9977516        32.31877
0.844                   0.996742        31.70018
0.848                  0.9962383        31.10087
0.852                  0.9963357        30.50715
0.856                  0.9970233        29.90416
0.86                   0.9981836        29.27857
0.864                  0.9996134        28.62109
0.868                    1.00106        27.92807
0.872                   1.002266        27.20218
0.876                   1.003013        26.45187
0.88                    1.003163        25.68995
0.884                   1.002681        24.93137
0.888                   1.001644        24.19068
0.892                   1.000226        23.47956
0.896                  0.9986733        22.80464
0.9                    0.9972604        22.16625
0.904                  0.9962407        21.55812
0.908                  0.9958012        20.96836
0.912                  0.9960277        20.38149
0.916                  0.9968868        19.78127
0.92                   0.9982314        19.15367
0.924                  0.9998258        18.48943
0.928                   1.001387        17.78575
0.932                   1.002636        17.04676
0.936                   1.003346        16.28274
0.94                    1.003382        15.50837
0.944                   1.002728        14.74025
0.948                   1.001487        13.99407
0.952                  0.9998684         13.2819
0.956                  0.9981532        12.61001
0.96                   0.9966443         11.9775
0.964                  0.9956133         11.3763
0.968                  0.9952508        10.79238
0.972                  0.9956305        10.20818
0.976                  0.9966931        9.605844
0.98                   0.9982561        8.970518
0.984                   1.000045         8.29305
0.988                   1.001743        7.571637
0.992                   1.003046         6.81211
0.996                   1.003716        6.026884
1                       1.003623        5.232829
1.004                   1.002772        4.448446
1.008                   1.001299        3.690735
1.012                  0.9994531         2.97225
1.016                  0.9975556        2.298754
1.02                   0.9959428        1.667957
1.024                  0.9949073        1.069618
1.028                  0.9946436        0.487173
1.032                  0.9952102     -0.09935754
1.036                  0.9965169       -0.709701
1.04                   0.9983391       -1.359669
1.044                   1.000357       -2.058256
1.048                   1.002213       -2.806048
1.052                   1.003573       -3.595175
1.056                   1.004186       -4.410697
1.06                    1.003931        -5.23314
1.064                   1.002834       -6.041729
1.068                   1.001072       -6.817878
1.072                  0.9989407       -7.548429
1.076                  0.9968104       -8.228154
1.08                   0.9950581       -8.861013
1.084                  0.9940023       -9.459801
1.088                  0.9938424       -10.04414
1.092                  0.9946202       -10.63694
1.096                  0.9962086       -11.26019
1.1                    0.9983332       -11.93088
1.104                    1.00062       -12.65789
1.108                   1.002661       -13.44041
1.112                   1.004088       -14.26806
1.116                   1.004634       -15.12301
1.12                    1.004184       -15.98261
1.124                   1.002792       -16.82329
1.128                   1.000683       -17.62456
1.132                  0.9982099       -18.37244
1.136                  0.9958019        -19.0623
1.14                   0.9938872        -19.7001
1.144                  0.9928164       -20.30177
1.148                   0.992797        -20.8907
1.152                  0.9938503       -21.49349
1.156                  0.9958049       -22.13504
1.16                   0.9983244       -22.83387
1.164                   1.000967       -23.59872
1.168                   1.003263       -24.42712
1.172                   1.004798       -25.30583
1.176                   1.005283       -26.21324
1.18                    1.004607       -27.12284
1.184                   1.002859       -28.00756
1.188                   1.000319       -28.84425
1.192                  0.9974119       -29.61777
1.196                  0.9946417       -30.32401
1.2                    0.9925026       -30.97125
1.204                  0.9913898        -31.5793
1.208                  0.9915234       -32.17629
1.212                  0.9929028       -32.79359
1.216                  0.9953024       -33.45991
1.22                   0.9983088       -34.19587
1.224                   1.001394       -35.01028
1.228                   1.004006       -35.89869
1.232                    1.00567       -36.84426
1.236                   1.006064       -37.82068
1.24                     1.00508        -38.7964
1.244                   1.002848       -39.73966
1.248                  0.9997155       -40.62365
1.252                  0.9962025       -41.43131
1.256                  0.9929131       -42.15889
1.26                   0.9904333       -42.81747
1.264                  0.9892232       -43.43188
1.268                  0.9895271       -44.03667
1.272                  0.9913218        -44.6698
1.276                  0.9943136       -45.36547
1.28                   0.9979873       -46.14755
1.284                   1.001698       -47.02536
1.288                   1.004781       -47.99217
1.292                   1.006671       -49.02657
1.296                   1.006994       -50.09612
1.3                     1.005637        -51.1624
1.304                   1.002773       -52.18697
1.308                  0.9988423       -53.13761
1.312                  0.9944892       -53.99399
1.316                  0.9904598       -54.75219
1.32                   0.9874743       -55.42669
1.324                  0.9860939       -56.04907
1.328                  0.9866091       -56.66303
1.332                  0.9889741       -57.31629
1.336                  0.9928056       -58.05141
1.34                   0.9974463       -58.89763
1.344                    1.00208       -59.86562
1.348                   1.005874       -60.94599
1.352                   1.008119       -62.11119
1.356                   1.008351       -63.32012
1.36                    1.006432       -64.52429
1.364                   1.002585       -65.67501
1.368                  0.9973729       -66.73104
1.372                  0.9916211       -67.66583
1.376                  0.9862955       -68.47372
1.38                   0.9823368       -69.17302
1.384                  0.9804856       -69.80512
1.388                  0.9811315       -70.42797
1.392                  0.9842202       -71.10552
1.396                  0.9892474       -71.89499
1.4                    0.9953417       -72.83574
1.404                   1.001415       -73.94237
1.408                   1.006352       -75.20278
1.412                   1.009193       -76.58099
1.416                   1.009295       -78.02287
1.42                    1.006443       -79.46395
1.424                   1.000902       -80.83817
1.428                  0.9934051       -82.08763
1.432                  0.9850705       -83.17259
1.436                  0.9772435       -84.08106
1.44                    0.971278       -84.83528
1.444                  0.9682845       -85.49242
1.448                   0.968893       -86.13712
1.452                  0.9730949       -86.86586
1.456                  0.9802099       -87.76748
1.46                   0.9889905       -88.90533
1.464                  0.9978351       -90.30653
1.468                   1.005057       -91.95916
1.472                   1.009151       -93.81637
1.476                   1.009028       -95.80415
1.48                    1.004185       -97.83084
1.484                   0.994815       -99.79762
1.488                  0.9818375       -101.6105
1.492                  0.9668416       -103.1949
1.496                  0.9519171       -104.5135
1.5                    0.9393602        -105.584
1.504                  0.9312604       -106.4915
1.508                  0.9290324       -107.3863
1.512                  0.9330151       -108.4609
1.516                  0.9422749       -109.9125
1.52                   0.9546831       -111.9039
1.524                   0.967229       -114.5403
1.528                  0.9764444       -117.8648
1.532                  0.9788195       -121.8703
1.536                  0.9711355       -126.5163
1.54                   0.9506983       -131.7453
1.544                  0.9154831       -137.4952
1.548                  0.8642128       -143.7085
1.552                  0.7963866       -150.3388
1.556                  0.7122727       -157.3593
1.56                   0.6128745       -164.7771
1.564                  0.4998791       -172.6707
1.568                   0.375611        178.6898
1.572                  0.2430979        168.3121
1.576                  0.1074376        149.8732
1.58                  0.05387901        23.52388
1.584                  0.1843368       -14.38475
1.588                  0.3190702       -26.55659
1.592                  0.4472103       -35.74056
1.596                  0.5652572       -43.91332
1.6                    0.6706204       -51.53377
1.604                  0.7613466       -58.73872
1.608                  0.8361429       -65.55933
1.612                  0.8944288       -71.98105
1.616                  0.9363778       -77.96503
1.62                    0.962936       -83.45805
1.624                  0.9758095       -88.39935
1.628                  0.9774098       -92.72849
1.632                  0.9707402       -96.39592
1.636                  0.9592059       -99.37781
1.64                   0.9463266       -101.6933
1.644                  0.9353565       -103.4191
1.648                  0.9288536        -104.694
1.652                   0.928305       -105.7034
1.656                  0.9339341       -106.6467
1.66                   0.9447752       -107.6967
1.664                  0.9589957       -108.9693
1.668                  0.9743465       -110.5121
1.672                  0.9886064       -112.3111
1.676                  0.9999312       -114.3069
1.68                    1.007075        -116.413
1.684                   1.009496        -118.532
1.688                   1.007363       -120.5677
1.692                   1.001486       -122.4366
1.696                  0.9931801       -124.0772
1.7                    0.9840585        -125.459
1.704                  0.9757921       -126.5886
1.708                  0.9698374       -127.5106
1.712                  0.9671919       -128.3016
1.716                  0.9682303       -129.0558
1.72                   0.9726624       -129.8661
1.724                  0.9796251        -130.806
1.728                  0.9878801       -131.9174
1.732                  0.9960581       -133.2072
1.736                   1.002898       -134.6508
1.74                    1.007434       -136.2001
1.744                   1.009122       -137.7934
1.748                   1.007887       -139.3647
1.752                   1.004113       -140.8532
1.756                  0.9985681        -142.211
1.76                   0.9922759       -143.4106
1.764                  0.9863509        -144.449
1.768                  0.9818149       -145.3493
1.772                  0.9794228       -146.1572
1.776                  0.9795352       -146.9326
1.78                   0.9820659       -147.7382
1.784                  0.9865153       -148.6272
1.788                  0.9920802       -149.6342
1.792                  0.9978106       -150.7707
1.796                   1.002779       -152.0251
1.8                     1.006229        -153.367
1.804                   1.007682       -154.7534
1.808                   1.007002        -156.136
1.812                   1.004394        -157.468
1.816                   1.000368       -158.7115
1.82                   0.9956481       -159.8423
1.824                  0.9910566       -160.8546
1.828                  0.9873741       -161.7618
1.832                  0.9852089       -162.5945
1.836                  0.9848937       -163.3954
1.84                    0.986434       -164.2111
1.844                  0.9895167       -165.0829
1.848                  0.9935784       -166.0405
1.852                  0.9979138       -167.0963
1.856                   1.001803       -168.2456
1.86                    1.004629       -169.4681
1.864                   1.005973       -170.7323
1.868                   1.005671       -172.0009
1.872                   1.003829        -173.237
1.876                     1.0008        -174.409
1.88                   0.9971241       -175.4958
1.884                  0.9934334         -176.49
1.888                  0.9903515       -177.3992
1.892                  0.9883862       -178.2452
1.896                  0.9878445       -179.0596
1.9                     0.988783       -179.8786
1.904                  0.9910046        179.2641
1.908                  0.9941017        178.3431
1.912                   0.997534        177.3453
1.916                   1.000726        176.2715
1.92                    1.003162        175.1354
1.924                   1.004469        173.9602
1.928                    1.00447        172.7753
1.932                   1.003202        171.6108
1.936                   1.000911        170.4933
1.94                   0.9980008        169.4418
1.944                  0.9949691        168.4646
1.948                  0.9923242        167.5581
1.952                  0.9904992        166.7072
1.956                  0.9897801         165.888
1.96                   0.9902595        165.0719
1.964                  0.9918252        164.2312
1.968                  0.9941857        163.3436
1.972                   0.996926        162.3959
1.976                  0.9995823        161.3859
1.98                     1.00172        160.3221
1.984                   1.003003        159.2216
1.988                   1.003245        158.1072
1.992                   1.002431        157.0036
1.996                   1.000718        155.9335
2                      0.9984053        154.9142
2.004                  0.9958811        153.9548
2.008                   0.993562        153.0551
2.012                  0.9918215        152.2052
2.016                  0.9909301        151.3875
2.02                   0.9910101        150.5795
2.024                  0.9920203        149.7584
2.028                  0.9937661        148.9042
2.032                  0.9959373        148.0037
2.036                  0.9981649        147.0521
2.04                    1.000081        146.0535
2.044                   1.001381        145.0194
2.048                   1.001867        143.9672
2.052                   1.001475        142.9167
2.056                   1.000285        141.8872
2.06                   0.9984987        140.8949
2.064                  0.9964103        139.9498
2.068                  0.9943556        139.0546
2.072                  0.9926574        138.2045
2.076                  0.9915751        137.3874
2.08                   0.9912621        136.5865
2.084                  0.9917444        135.7829
2.088                  0.9929182        134.9591
2.092                  0.9945717        134.1014
2.096                  0.9964219        133.2023
2.1                    0.9981629        132.2616
2.104                  0.9995132        131.2855
2.108                    1.00026         130.286
2.112                   1.000288        129.2783
2.116                  0.9995962        128.2789
2.12                   0.9982925         127.303
2.124                  0.9965771         126.362
2.128                  0.9947097         125.462
2.132                  0.9929696        124.6031
2.136                  0.9916119        123.7792
2.14                    0.990829        122.9787
2.144                  0.9907204        122.1868
2.148                  0.9912801        121.3877
2.152                  0.9923983        120.5671
2.156                  0.9938803        119.7142
2.16                   0.9954785        118.8238
2.164                  0.9969303        117.8962
2.168                  0.9979974        116.9376
2.172                  0.9985009        115.9585
2.176                  0.9983454        114.9727
2.18                   0.9975329        113.9946
2.184                   0.996162        113.0379
2.188                  0.9944135        112.1129
2.192                   0.992525        111.2256
2.196                  0.9907572        110.3763
2.2                    0.9893549        109.5594
2.204                   0.988511        108.7645
2.208                  0.9883358        107.9771
2.212                   0.988839        107.1815
2.216                  0.9899265        106.3626
2.22                   0.9914119        105.5083
2.224                  0.9930437        104.6119
2.228                  0.9945411        103.6722
2.232                  0.9956349        102.6944
2.236                  0.9961065        101.6892
2.24                   0.9958223        100.6712
2.244                  0.9947547         99.6572
2.248                  0.9929916        98.66354
2.252                  0.9907274        97.70395
2.256                  0.9882409        96.78721
2.26                   0.9858572        95.91539
2.264                  0.9838999        95.08299
2.268                  0.9826404        94.27719
2.272                  0.9822509        93.47926
2.276                  0.9827696        92.66732
2.28                   0.9840878        91.81959
2.284                  0.9859575        90.91805
2.288                  0.9880248        89.95135
2.292                  0.9898798        88.91681
2.296                  0.9911186        87.82102
2.3                    0.9914054        86.67918
2.304                  0.9905284        85.51299
2.308                  0.9884393        84.34782
2.312                  0.9852726        83.20898
2.316                  0.9813376        82.11779
2.32                   0.9770839        81.08765
2.324                    0.97304        80.12072
2.328                  0.9697321        79.20608
2.332                  0.9675927        78.31971
2.336                  0.9668758        77.42728
2.34                   0.9675959        76.48903
2.344                  0.9695041        75.46614
2.348                    0.97211        74.32736
2.352                  0.9747468        73.05424