! TOUCHSTONE file generated by CST MICROWAVE STUDIO
! Date and time: Tue Jun 14 12:33:46 2022
! Project name: AppElm_antenne_patch_FR4.cst
! Parameters = {L=45; W=58.5; e=0.035; h=1.6; lambda=0.190476; ls=120; w0=2.54; w1=0.76225; ws=120; y0=18; y1=23.8}
! Header version: 2018
! Port assignment regex: !\s*Touchstone port\s*([0-9]+)\s*=\s*(CST MWS port|CST DS port)\s*([0-9]+|Zmin|Zmax)\s*\(\"(.*)\"\)(\s*mode\s*([0-9]+))?.*
! Touchstone port assignment:
! Touchstone port 1 = CST MWS port 1 ("")
# GHz S MA R 50
0                      0.9874529              -0
0.004                  0.9881978       -9.978118
0.008                  0.9903302       -19.86261
0.012                  0.9935579       -29.56473
0.016                  0.9974444       -39.00466
0.02                    1.001475       -48.11413
0.024                   1.005128       -56.83751
0.028                    1.00795       -65.13182
0.032                    1.00961       -72.96581
0.036                   1.009941       -80.31918
0.04                    1.008958       -87.18173
0.044                   1.006849       -93.55323
0.048                   1.003946       -99.44338
0.052                   1.000683        -104.872
0.056                  0.9975252       -109.8691
0.06                   0.9949104       -114.4735
0.064                  0.9931821       -118.7317
0.068                  0.9925418       -122.6938
0.072                  0.9930227       -126.4105
0.076                  0.9944911       -129.9286
0.08                   0.9966734       -133.2871
0.084                   0.999204       -136.5153
0.088                   1.001686       -139.6316
0.092                    1.00375        -142.644
0.096                   1.005111        -145.552
0.1                     1.005601       -148.3492
0.104                   1.005192       -151.0262
0.108                   1.003992        -153.574
0.112                   1.002227       -155.9866
0.116                   1.000197       -158.2631
0.12                   0.9982343       -160.4093
0.124                  0.9966473       -162.4377
0.128                  0.9956737       -164.3664
0.132                  0.9954443       -166.2174
0.136                  0.9959654       -168.0133
0.14                   0.9971223       -169.7747
0.144                  0.9987021       -171.5176
0.148                   1.000433       -173.2516
0.152                   1.002029       -174.9791
0.156                   1.003238       -176.6961
0.16                    1.003879       -178.3936
0.164                   1.003868        179.9406
0.168                    1.00323         178.319
0.172                   1.002088        176.7526
0.176                   1.000645        175.2488
0.18                   0.9991465        173.8094
0.184                  0.9978412        172.4308
0.188                  0.9969396         171.104
0.192                  0.9965801        169.8159
0.196                  0.9968071        168.5513
0.2                    0.9975663        167.2957
0.204                  0.9987159         166.037
0.208                   1.000053        164.7677
0.212                   1.001349        163.4855
0.216                   1.002388        162.1936
0.22                    1.003004        160.8997
0.224                   1.003103        159.6143
0.228                   1.002679        158.3491
0.232                   1.001815        157.1148
0.236                   1.000662        155.9195
0.24                    0.999421        154.7666
0.244                  0.9983011        153.6552
0.248                  0.9974896        152.5794
0.252                   0.997118        151.5292
0.256                  0.9972415         150.493
0.26                   0.9978298        149.4585
0.264                  0.9987744        148.4155
0.268                  0.9999085        147.3572
0.272                   1.001036        146.2814
0.276                   1.001965        145.1904
0.28                    1.002541        144.0908
0.284                   1.002672         142.992
0.288                   1.002342        141.9046
0.292                   1.001612        140.8386
0.296                   1.000612        139.8018
0.3                    0.9995147        138.7983
0.304                  0.9985089        137.8278
0.308                  0.9977659        136.8857
0.312                  0.9974105        135.9639
0.316                  0.9974996        135.0518
0.32                   0.9980133        134.1386
0.324                  0.9988583        133.2151
0.328                  0.9998861        132.2749
0.332                   1.000918        131.3157
0.336                   1.001777        130.3396
0.34                    1.002318        129.3526
0.344                    1.00245        128.3634
0.348                   1.002155        127.3818
0.352                   1.001486        126.4176
0.356                   1.000561         125.478
0.36                   0.9995406        124.5673
0.364                  0.9986017        123.6855
0.368                  0.9979065        122.8284
0.372                  0.9975739        121.9886
0.376                  0.9976601        121.1563
0.38                   0.9981477        120.3214
0.384                    0.99895         119.475
0.388                  0.9999261        118.6111
0.392                   1.000906        117.7276
0.396                    1.00172        116.8264
0.4                     1.002228        115.9134
0.404                   1.002344        114.9969
0.408                   1.002049        114.0866
0.412                   1.001396        113.1918
0.416                   1.000498        112.3197
0.42                   0.9995114        111.4742
0.424                  0.9986084        110.6555
0.428                  0.9979459        109.8596
0.432                  0.9976391         109.079
0.436                  0.9977412        108.3042
0.44                   0.9982335        107.5255
0.444                   0.999029        106.7342
0.448                  0.9999881        105.9246
0.452                   1.000943        105.0947
0.456                   1.001727        104.2467
0.46                    1.002204        103.3864
0.464                   1.002291        102.5223
0.468                   1.001973        101.6639
0.472                   1.001304        100.8204
0.476                     1.0004        99.99898
0.48                   0.9994195        99.20338
0.484                  0.9985323        98.43346
0.488                  0.9978944        97.68502
0.492                  0.9976177        96.95053
0.496                  0.9977512        96.22044
0.5                    0.9982715        95.48488
0.504                  0.9990874        94.73543
0.508                   1.000055        93.96653
0.512                   1.001005        93.17655
0.516                   1.001771        92.36794
0.52                    1.002217        91.54687
0.524                   1.002265          90.722
0.528                   1.001905        89.90314
0.532                   1.001198        89.09947
0.536                   1.000266          88.318
0.54                   0.9992717         87.5623
0.544                  0.9983887        86.83184
0.548                  0.9977731        86.12203
0.552                  0.9975338        85.42491
0.556                  0.9977143        84.73069
0.56                   0.9982839        84.02929
0.564                   0.999143        83.31228
0.568                   1.000141         82.5744
0.572                   1.001101        81.81438
0.576                   1.001855        81.03518
0.58                    1.002269        80.24342
0.584                   1.002268        79.44829
0.588                   1.001851         78.6599
0.592                   1.001087        77.88757
0.596                   1.000109        77.13823
0.6                    0.9990868         76.4151
0.604                  0.9982007        75.71722
0.608                  0.9976078        75.03934
0.612                  0.9974146        74.37294
0.616                  0.9976572         73.7077
0.62                   0.9982949        73.03324
0.624                  0.9992163        72.34118
0.628                    1.00026        71.62644
0.632                   1.001241        70.88826
0.636                   1.001986        70.13026
0.64                    1.002363        69.35979
0.644                   1.002301        68.58664
0.648                   1.001809        67.82139
0.652                    1.00097        67.07357
0.656                  0.9999285        66.35002
0.66                   0.9988663        65.65362
0.664                  0.9979711        64.98267
0.668                  0.9974028        64.33124
0.672                  0.9972645        63.68994
0.676                  0.9975835        63.04782
0.68                    0.998306        62.39412
0.684                  0.9993059        61.72038
0.688                   1.000407        61.02186
0.692                   1.001415        60.29839
0.696                   1.002151        59.55445
0.7                     1.002481        58.79821
0.704                   1.002344         58.0403
0.708                    1.00176        57.29188
0.712                   1.000826        56.56276
0.716                  0.9997041        55.85963
0.72                   0.9985906        55.18491
0.724                  0.9976824        54.53612
0.728                  0.9971423        53.90631
0.732                  0.9970695        53.28516
0.736                    0.99748        52.66087
0.74                   0.9983047        52.02224
0.744                  0.9993991        51.36072
0.748                    1.00057        50.67198
0.752                    1.00161         49.9566
0.756                   1.002333        49.22002
0.76                    1.002607        48.47153
0.764                   1.002379        47.72269
0.768                   1.001683        46.98536
0.772                   1.000636        46.26965
0.776                  0.9994184        45.58212
0.78                   0.9982444        44.92456
0.784                  0.9973217        44.29355
0.788                  0.9968168        43.68095
0.792                  0.9968234        43.07528
0.796                  0.9973446        42.46377
0.8                    0.9982913        41.83469
0.804                  0.9994979        41.17943
0.808                   1.000751        40.49414
0.812                   1.001828        39.78031
0.816                   1.002535        39.04457
0.82                    1.002742        38.29746
0.824                   1.002406        37.55167
0.828                   1.001578        36.81988
0.832                   1.000399        36.11252
0.836                  0.9990712        35.43596
0.84                   0.9978286        34.79127
0.844                  0.9968923        34.17385
0.848                  0.9964323        33.57419
0.852                  0.9965353        32.97942
0.856                  0.9971884        32.37566
0.86                     0.99828        31.75054
0.864                  0.9996189        31.09546
0.868                   1.000968        30.40712
0.872                   1.002087        29.68813
0.876                   1.002774         28.9465
0.88                    1.002901        28.19426
0.884                   1.002437        27.44542
0.888                   1.001455        26.71354
0.892                   1.000121        26.00947
0.896                  0.9986657        25.33932
0.9                    0.9973453        24.70328
0.904                  0.9963958        24.09538
0.908                   0.995991        23.50445
0.912                  0.9962097          22.916
0.916                  0.9970194        22.31488
0.92                   0.9982813        21.68799
0.924                  0.9997745        21.02674
0.928                   1.001235        20.32857
0.932                   1.002401        19.59736
0.936                   1.003061        18.84277
0.94                    1.003091        18.07856
0.944                   1.002475        17.32024
0.948                   1.001311        16.58248
0.952                  0.9997947        15.87655
0.956                  0.9981895        15.20825
0.96                   0.9967782        14.57671
0.964                  0.9958144        13.97435
0.968                  0.9954761        13.38805
0.972                  0.9958316        12.80141
0.976                  0.9968257        12.19775
0.98                   0.9982878        11.56318
0.984                  0.9999615        10.88914
0.988                    1.00155         10.1739
0.992                   1.002769        9.422884
0.996                   1.003396        8.647693
1                       1.003309        7.864106
1.004                   1.002511        7.089447
1.008                   1.001128        6.339654
1.012                  0.9993951        5.626507
1.016                  0.9976107        4.955444
1.02                   0.9960905        4.324368
1.024                  0.9951087        3.723757
1.028                  0.9948485        3.138159
1.032                  0.9953662        2.548909
1.036                  0.9965795        1.937525
1.04                   0.9982793        1.289135
1.044                   1.000168       0.5951942
1.048                    1.00191      -0.1449959
1.052                   1.003192      -0.9242017
1.056                   1.003778       -1.728529
1.06                    1.003551       -2.539774
1.064                   1.002533       -3.338451
1.068                   1.000887        -4.10707
1.072                    0.99889       -4.833189
1.076                  0.9968869       -5.511767
1.08                    0.995232       -6.146352
1.084                  0.9942253       -6.748796
1.088                  0.9940569       -7.337334
1.092                  0.9947693       -7.933473
1.096                  0.9962473       -8.557862
1.1                    0.9982368       -9.226619
1.104                   1.000389       -9.948298
1.108                    1.00232        -10.7224
1.112                   1.003684       -11.53954
1.116                   1.004224       -12.38307
1.12                    1.003828       -13.23179
1.124                   1.002543       -14.06357
1.128                   1.000573       -14.85897
1.132                  0.9982486       -15.60461
1.136                  0.9959703       -16.29584
1.14                   0.9941418       -16.93792
1.144                  0.9930965       -17.54553
1.148                  0.9930346       -18.14041
1.152                  0.9939838       -18.74751
1.156                  0.9957896       -19.39037
1.16                   0.9981416       -20.08672
1.164                   1.000627       -20.84524
1.168                   1.002805       -21.66406
1.172                   1.004279       -22.53118
1.176                   1.004772       -23.42652
1.18                    1.004171       -24.32521
1.184                   1.002553       -25.20169
1.188                   1.000172       -26.03385
1.192                  0.9974238       -26.80702
1.196                  0.9947828       -27.51682
1.2                    0.9927167       -28.17051
1.204                  0.9916044       -28.78629
1.208                  0.9916631       -29.39038
1.212                  0.9929042       -30.01232
1.216                  0.9951261       -30.67946
1.22                    0.997947       -31.41183
1.224                   1.000873       -32.21849
1.228                   1.003382       -33.09599
1.232                   1.005016       -34.02913
1.236                   1.005463       -34.99345
1.24                    1.004607       -35.95929
1.244                   1.002554       -36.89647
1.248                  0.9996251       -37.77919
1.252                  0.9963012       -38.59067
1.256                  0.9931521       -39.32652
1.26                   0.9907356       -39.99636
1.264                  0.9894976       -40.62293
1.268                  0.9896847       -41.23841
1.272                  0.9912933       -41.87872
1.276                  0.9940623       -42.57669
1.28                   0.9975169       -43.35582
1.284                   1.001051        -44.2261
1.288                   1.004032       -45.18231
1.292                   1.005912       -46.20516
1.296                    1.00632       -47.26444
1.3                     1.005128        -48.3239
1.304                   1.002478       -49.34676
1.308                  0.9987708        -50.3017
1.312                  0.9946059       -51.16836
1.316                   0.990689       -51.94163
1.32                   0.9877116       -52.63388
1.324                  0.9862251        -53.2739
1.328                  0.9865311       -53.90247
1.332                  0.9886159         -54.565
1.336                  0.9921428       -55.30279
1.34                    0.996507       -56.14518
1.344                    1.00094       -57.10421
1.348                   1.004644       -58.17284
1.352                   1.006925       -59.32635
1.356                   1.007314       -60.52658
1.36                    1.005646       -61.72757
1.364                   1.002101       -62.88251
1.368                  0.9971852       -63.95099
1.372                  0.9916681       -64.90604
1.376                  0.9864653        -65.7401
1.38                   0.9824857       -66.46843
1.384                  0.9804645       -67.12854
1.388                  0.9808153       -67.77465
1.392                  0.9835341       -68.46791
1.396                  0.9881844       -69.26447
1.4                    0.9939654       -70.20455
1.404                  0.9998498       -71.30527
1.408                    1.00476        -72.5582
1.412                   1.007748       -73.93144
1.416                   1.008151       -75.37483
1.42                    1.005707       -76.82726
1.424                   1.000611       -78.22494
1.428                  0.9935142       -79.51076
1.432                  0.9854487       -80.64392
1.436                  0.9776882       -81.60921
1.44                   0.9715451        -82.4237
1.444                  0.9681296       -83.13825
1.448                    0.96812        -83.8314
1.452                  0.9715981       -84.59552
1.456                  0.9779979       -85.51849
1.46                   0.9861873       -86.66609
1.464                  0.9946582       -88.07054
1.468                   1.001778       -89.72657
1.472                   1.006051       -91.59419
1.476                   1.006347       -93.60587
1.48                     1.00208       -95.67543
1.484                  0.9933225       -97.70794
1.488                  0.9808471       -99.61122
1.492                  0.9660877       -101.3095
1.496                  0.9509943       -102.7599
1.5                    0.9377709       -103.9703
1.504                  0.9284965       -105.0124
1.508                  0.9246792       -106.0225
1.512                  0.9268523       -107.1837
1.516                  0.9343411       -108.6918
1.52                   0.9452869       -110.7172
1.524                  0.9569096       -113.3784
1.528                  0.9659041       -116.7351
1.532                  0.9688492       -120.7962
1.536                  0.9625511       -125.5368
1.54                   0.9442906       -130.9152
1.544                  0.9119851       -136.8879
1.548                  0.8642808       -143.4217
1.552                  0.8005982       -150.5074
1.556                   0.721147       -158.1782
1.56                   0.6269312       -166.5474
1.564                  0.5197846          -175.9
1.568                  0.4025625        173.0451
1.572                  0.2800692        158.1782
1.576                  0.1645944        131.3564
1.58                   0.1134812        67.36302
1.584                  0.1928103        14.63478
1.588                  0.3125824        -7.39358
1.592                  0.4345253       -20.89571
1.596                  0.5496486       -31.41014
1.6                    0.6538396       -40.49102
1.604                  0.7445285       -48.69659
1.608                  0.8200823       -56.25175
1.612                  0.8796794       -63.24302
1.616                  0.9232906       -69.68949
1.62                   0.9516766       -75.57335
1.624                  0.9663701       -80.85636
1.628                  0.9696238       -85.49228
1.632                  0.9643065       -89.43963
1.636                  0.9537263       -92.67747
1.64                   0.9413606       -95.22339
1.644                  0.9304897       -97.14979
1.648                   0.923771       -98.59032
1.652                  0.9228483        -99.7282
1.656                  0.9281243       -100.7654
1.66                   0.9387924       -101.8823
1.664                  0.9531234       -103.2056
1.668                  0.9689017       -104.7933
1.672                  0.9838755       -106.6402
1.676                  0.9961197       -108.6928
1.68                    1.004278       -110.8679
1.684                   1.007685       -113.0683
1.688                   1.006393       -115.1968
1.692                   1.001112       -117.1664
1.696                  0.9930902       -118.9104
1.7                     0.983924       -120.3918
1.704                  0.9753172       -121.6099
1.708                  0.9688122       -122.6031
1.712                  0.9655324       -123.4443
1.716                  0.9659933       -124.2278
1.72                   0.9700307       -125.0506
1.724                  0.9768671       -125.9932
1.728                  0.9852936       -127.1057
1.732                  0.9939146       -128.4024
1.736                   1.001395       -129.8643
1.74                    1.006666       -131.4462
1.744                   1.009067       -133.0869
1.748                   1.008411       -134.7188
1.752                   1.004993        -136.277
1.756                  0.9995247       -137.7085
1.76                    0.993018        -138.979
1.764                  0.9866256        -140.079
1.768                  0.9814532        -141.026
1.772                   0.978372       -141.8625
1.776                   0.977871       -142.6488
1.78                   0.9799777        -143.451
1.784                  0.9842693       -144.3289
1.788                  0.9899689       -145.3244
1.792                  0.9960992       -146.4561
1.796                   1.001661       -147.7176
1.8                     1.005795       -149.0815
1.804                    1.00791       -150.5052
1.808                   1.007759       -151.9386
1.812                   1.005461       -153.3308
1.816                   1.001475       -154.6383
1.82                   0.9965194       -155.8306
1.824                  0.9914556       -156.8954
1.828                  0.9871487        -157.841
1.832                  0.9843208       -158.6953
1.836                  0.9834277       -159.5013
1.84                   0.9845826       -160.3092
1.844                  0.9875451       -161.1666
1.848                  0.9917743       -162.1102
1.852                  0.9965367       -163.1594
1.856                   1.001038       -164.3146
1.86                    1.004557       -165.5583
1.864                    1.00656       -166.8596
1.868                   1.006772       -168.1789
1.872                   1.005215       -169.4749
1.876                   1.002194       -170.7104
1.88                   0.9982442       -171.8575
1.884                   0.994045       -172.9025
1.888                  0.9903076       -173.8481
1.892                   0.987656       -174.7133
1.896                  0.9865214       -175.5307
1.9                    0.9870682       -176.3399
1.904                  0.9891713       -177.1809
1.908                  0.9924443       -178.0864
1.912                  0.9963153       -179.0764
1.916                   1.000131        179.8444
1.92                    1.003268        178.6868
1.924                   1.005232         177.474
1.928                   1.005733        176.2376
1.932                   1.004724        175.0124
1.936                   1.002402        173.8312
1.94                   0.9991733        172.7199
1.944                  0.9955868        171.6933
1.948                  0.9922448        170.7527
1.952                  0.9897026        169.8854
1.956                  0.9883744        169.0667
1.96                   0.9884633        168.2639
1.964                  0.9899286        167.4428
1.968                  0.9924985        166.5735
1.972                  0.9957217        165.6355
1.976                  0.9990501        164.6209
1.98                    1.001933        163.5354
1.984                   1.003907        162.3961
1.988                   1.004666        161.2284
1.992                   1.004107        160.0623
1.996                   1.002342         158.927
2                      0.9996747        157.8473
2.004                  0.9965524        156.8389
2.008                  0.9934939        155.9066
2.012                  0.9910028        155.0428
2.016                  0.9894838        154.2288
2.02                   0.9891745        153.4377
2.024                  0.9901064        152.6395
2.028                  0.9921018        151.8065
2.032                  0.9948089        150.9175
2.036                  0.9977656        149.9619
2.04                    1.000478        148.9408
2.044                   1.002504         147.866
2.048                    1.00352        146.7579
2.052                   1.003371        145.6421
2.056                   1.002089        144.5455
2.06                   0.9998912        143.4918
2.064                  0.9971368        142.4982
2.068                  0.9942747        141.5727
2.072                  0.9917695        140.7123
2.076                  0.9900235        139.9036
2.08                    0.989312        139.1249
2.084                  0.9897355        138.3498
2.088                  0.9912048        137.5517
2.092                  0.9934588        136.7089
2.096                  0.9961107        135.8076
2.1                    0.9987152        134.8443
2.104                   1.000841         133.826
2.108                   1.002142        132.7681
2.112                   1.002404        131.6927
2.116                   1.001583        130.6243
2.12                   0.9998058        129.5863
2.124                  0.9973496         128.598
2.128                  0.9946007        127.6706
2.132                  0.9919926        126.8063
2.136                  0.9899359        125.9969
2.14                   0.9887517        125.2255
2.144                  0.9886174        124.4688
2.148                  0.9895376        123.7014
2.152                  0.9913444        122.8998
2.156                  0.9937249        122.0467
2.16                   0.9962766        121.1335
2.164                   0.998571        120.1615
2.168                   1.000223        119.1412
2.172                   1.000951        118.0909
2.176                   1.000617        117.0331
2.18                   0.9992487        115.9919
2.184                   0.997036        114.9889
2.188                  0.9943021        114.0402
2.192                  0.9914559        113.1534
2.196                  0.9889284        112.3266
2.2                    0.9871047         111.548
2.204                  0.9862606        110.7976
2.208                   0.986515        110.0504
2.212                  0.9878087        109.2805
2.216                  0.9899132        108.4652
2.22                    0.992466        107.5893
2.224                  0.9950302         106.647
2.228                  0.9971619        105.6426
2.232                  0.9984794          104.59
2.236                   0.998722        103.5102
2.24                     0.99779        102.4282
2.244                  0.9957621        101.3699
2.248                  0.9928876        100.3575
2.252                  0.9895539        99.40665
2.256                  0.9862307        98.52349
2.26                   0.9834001        97.70297
2.264                  0.9814784        96.92897
2.268                  0.9807465        96.17635
2.272                  0.9812971        95.41477
2.276                  0.9830142        94.61361
2.28                   0.9855849        93.74709
2.284                  0.9885463        92.79858
2.288                  0.9913563        91.76323
2.292                  0.9934758        90.64856
2.296                  0.9944521        89.47329
2.3                    0.9939886        88.26469
2.304                  0.9919943        87.05472
2.308                  0.9886056        85.87572
2.312                  0.9841767        84.75555
2.316                  0.9792399        83.71303
2.32                   0.9744321        82.75388
2.324                  0.9704002        81.86834
2.328                  0.9676942        81.03094
2.332                  0.9666664        80.20331
2.336                  0.9673957        79.33977
2.34                   0.9696565        78.39471
2.344                  0.9729397        77.33026
2.348                  0.9765202        76.12266
2.352                  0.9795645        74.76566