! TOUCHSTONE file generated by CST MICROWAVE STUDIO
! Date and time: Tue Jun 14 12:33:52 2022
! Project name: AppElm_antenne_patch_FR4.cst
! Parameters = {L=45; W=58.5; e=0.035; h=1.6; lambda=0.190476; ls=120; w0=2.54; w1=1.01635; ws=120; y0=18; y1=23.8}
! Header version: 2018
! Port assignment regex: !\s*Touchstone port\s*([0-9]+)\s*=\s*(CST MWS port|CST DS port)\s*([0-9]+|Zmin|Zmax)\s*\(\"(.*)\"\)(\s*mode\s*([0-9]+))?.*
! Touchstone port assignment:
! Touchstone port 1 = CST MWS port 1 ("")
# GHz S MA R 50
0                      0.9871535              -0
0.004                  0.9879019       -9.966297
0.008                  0.9900459       -19.84052
0.012                  0.9932968       -29.53537
0.016                  0.9972229       -38.97223
0.02                    1.001312        -48.0838
0.024                   1.005045       -56.81511
0.028                   1.007965       -65.12351
0.032                   1.009733       -72.97789
0.036                   1.010172       -80.35768
0.04                    1.009281       -87.25221
0.044                   1.007234       -93.66037
0.048                   1.004351       -99.59071
0.052                   1.001054       -105.0617
0.056                  0.9978108       -110.1016
0.06                   0.9950636       -114.7478
0.064                  0.9931722       -119.0454
0.068                  0.9923603       -123.0438
0.072                  0.9926872       -126.7934
0.076                  0.9940438       -130.3413
0.08                   0.9961755       -133.7277
0.084                  0.9987276       -136.9834
0.088                   1.001302       -140.1283
0.092                   1.003518       -143.1718
0.096                   1.005068       -146.1146
0.1                     1.005757       -148.9506
0.104                   1.005526       -151.6706
0.108                   1.004454       -154.2647
0.112                   1.002745       -156.7256
0.116                    1.00069       -159.0507
0.12                   0.9986221       -161.2438
0.124                  0.9968649       -163.3157
0.128                   0.995683       -165.2833
0.132                  0.9952408       -167.1679
0.136                  0.9955801       -168.9923
0.14                   0.9966167       -170.7784
0.144                  0.9981585       -172.5438
0.148                  0.9999401       -174.3001
0.152                   1.001668       -176.0518
0.156                   1.003069       -177.7966
0.16                    1.003929       -179.5266
0.164                   1.004131        178.7703
0.168                   1.003661        177.1072
0.172                   1.002617        175.4964
0.176                   1.001184        173.9469
0.18                    0.999604         172.463
0.184                  0.9981396        171.0429
0.188                  0.9970276        169.6793
0.192                  0.9964419        168.3599
0.196                   0.996466        167.0696
0.2                    0.9970805        165.7927
0.204                  0.9981687        164.5155
0.208                  0.9995385        163.2282
0.212                   1.000956        161.9264
0.216                   1.002185        160.6114
0.22                    1.003026        159.2896
0.224                   1.003348        157.9712
0.228                   1.003108        156.6684
0.232                   1.002355        155.3932
0.236                   1.001224        154.1553
0.24                   0.9999081        152.9609
0.244                  0.9986307        151.8108
0.248                  0.9976053         150.701
0.252                  0.9970004        149.6227
0.256                  0.9969114        148.5639
0.26                   0.9973455        147.5117
0.264                  0.9982207        146.4539
0.268                  0.9993825        145.3815
0.272                    1.00063        144.2899
0.276                    1.00175        143.1796
0.28                    1.002556        142.0558
0.284                   1.002917        140.9274
0.288                   1.002774        139.8056
0.292                    1.00216        138.7018
0.296                   1.001181        137.6257
0.3                     1.000008        136.5836
0.304                    0.99884        135.5777
0.308                  0.9978779         134.605
0.312                  0.9972837        133.6583
0.316                  0.9971564        132.7272
0.32                   0.9975135        131.7999
0.324                  0.9982897        130.8651
0.328                  0.9993481        129.9144
0.332                   1.000505        128.9429
0.336                    1.00156        127.9508
0.34                    1.002335        126.9427
0.344                   1.002699        125.9268
0.348                   1.002591        124.9138
0.352                   1.002034        123.9146
0.356                   1.001124        122.9387
0.36                    1.000019        121.9927
0.364                  0.9989104        121.0787
0.368                  0.9979891        120.1946
0.372                  0.9974141        119.3337
0.376                   0.997284        118.4862
0.38                   0.9976196        117.6408
0.384                  0.9983611        116.7867
0.388                  0.9993784        115.9156
0.392                   1.000494        115.0228
0.396                   1.001515        114.1085
0.4                     1.002265        113.1769
0.404                   1.002616        112.2363
0.408                   1.002507        111.2969
0.412                    1.00196        110.3697
0.416                   1.001068        109.4638
0.42                   0.9999878         108.586
0.424                   0.998906        107.7384
0.428                  0.9980114        106.9188
0.432                  0.9974606        106.1206
0.436                    0.99735        105.3342
0.44                    0.997699        104.5483
0.444                  0.9984463        103.7525
0.448                   0.999461        102.9384
0.452                   1.000566        102.1017
0.456                   1.001568        101.2426
0.46                    1.002292        100.3656
0.464                   1.002613        99.47909
0.468                   1.002473        98.59346
0.472                   1.001897        97.71954
0.476                   1.000984        96.86674
0.48                   0.9998915        96.04138
0.484                  0.9988101        95.24558
0.488                  0.9979294         94.4768
0.492                  0.9974041        93.72818
0.496                  0.9973274        92.98984
0.5                    0.9977135        92.25044
0.504                  0.9984947        91.49937
0.508                  0.9995337        90.72853
0.512                   1.000648        89.93379
0.516                   1.001641        89.11578
0.52                    1.002339        88.27952
0.524                   1.002618         87.4337
0.528                   1.002427        86.58912
0.532                   1.001798         85.7568
0.536                   1.000838        84.94617
0.54                   0.9997144        84.16329
0.544                  0.9986232        83.40995
0.548                   0.997757        82.68305
0.552                  0.9972699        81.97517
0.556                  0.9972494        81.27593
0.56                    0.997701        80.57359
0.564                  0.9985464        79.85746
0.568                  0.9996373        79.11957
0.572                   1.000782        78.35621
0.576                   1.001778        77.56857
0.58                    1.002449        76.76237
0.584                   1.002676        75.94699
0.588                   1.002416        75.13373
0.592                   1.001713        74.33394
0.596                   1.000685        73.55705
0.6                    0.9995137        72.80892
0.604                  0.9984035         72.0907
0.608                  0.9975517        71.39859
0.612                  0.9971109        70.72435
0.616                  0.9971619        70.05685
0.62                   0.9976981        69.38391
0.624                  0.9986266         68.6946
0.628                   0.999784        67.98118
0.632                   1.000966        67.24048
0.636                   1.001963        66.47444
0.64                    1.002597        65.68975
0.644                   1.002754        64.89661
0.648                   1.002402        64.10706
0.652                   1.001599         63.3328
0.656                   1.000483        62.58328
0.66                   0.9992475        61.86398
0.664                  0.9981115        61.17532
0.668                  0.9972771        60.51252
0.672                   0.996895        59.86632
0.676                  0.9970366        59.22462
0.68                     0.99768        58.57464
0.684                  0.9987137        57.90523
0.688                  0.9999556        57.20896
0.692                   1.001186        56.48332
0.696                   1.002186        55.73126
0.7                     1.002777        54.96056
0.704                   1.002851        54.18249
0.708                   1.002389         53.4099
0.712                    1.00147        52.65495
0.716                    1.00025        51.92707
0.72                   0.9989433        51.23123
0.724                  0.9977818        50.56692
0.728                  0.9969738        49.92817
0.732                  0.9966665        49.30447
0.736                  0.9969193        48.68263
0.74                   0.9976914        48.04916
0.744                  0.9988485        47.39273
0.748                   1.000186        46.70629
0.752                   1.001468         45.9882
0.756                   1.002464        45.24262
0.76                    1.002995        44.47868
0.764                   1.002961         43.7089
0.768                   1.002363        42.94703
0.772                   1.001299        42.20577
0.776                  0.9999529        41.49446
0.78                   0.9985595        40.81741
0.784                  0.9973665        40.17298
0.788                  0.9965881        39.55379
0.792                  0.9963677        38.94783
0.796                  0.9967489        38.34065
0.8                    0.9976683        37.71799
0.804                  0.9989649        37.06837
0.808                   1.000409        36.38522
0.812                   1.001744        35.66798
0.816                   1.002729        34.92225
0.82                    1.003185        34.15867
0.824                   1.003025        33.39122
0.828                   1.002268        32.63471
0.832                   1.001042        31.90229
0.836                  0.9995569        31.20316
0.84                   0.9980743        30.54081
0.844                  0.9968582        29.91224
0.848                  0.9961292        29.30835
0.852                  0.9960232        28.71541
0.856                  0.9965656        28.11756
0.86                   0.9976653        27.49969
0.864                  0.9991302        26.85021
0.868                   1.000701        26.16319
0.872                   1.002098         25.4394
0.876                    1.00307         24.6861
0.88                    1.003439        23.91577
0.884                   1.003131        23.14396
0.888                   1.002193        22.38668
0.892                   1.000781        21.65761
0.896                  0.9991399         20.9657
0.9                    0.9975588        20.31344
0.904                  0.9963207         19.6962
0.908                  0.9956522        19.10291
0.912                  0.9956797        18.51788
0.916                  0.9964061        17.92365
0.92                    0.997708        17.30419
0.924                  0.9993573         16.6479
0.928                   1.001061         15.9497
0.932                   1.002515        15.21188
0.936                   1.003456        14.44368
0.94                    1.003709        13.65966
0.944                   1.003219        12.87723
0.948                    1.00206        12.11367
0.952                   1.000427        11.38322
0.956                  0.9986033        10.69448
0.96                   0.9969093        10.04871
0.964                  0.9956499         9.43937
0.968                  0.9950567        8.853037
0.972                  0.9952449        8.271728
0.976                  0.9961899        7.676156
0.98                   0.9977304        7.049311
0.984                  0.9995962         6.37961
0.988                   1.001456        5.662982
0.992                   1.002977        4.903551
0.996                   1.003884        4.112854
1                       1.004005        3.307848
1.004                   1.003306        2.508036
1.008                   1.001897        1.732195
1.012                   1.000017       0.9951352
1.016                  0.9979903       0.3050107
1.02                   0.9961767      -0.3383786
1.024                  0.9949047      -0.9438666
1.028                  0.9944108       -1.527599
1.032                  0.9947957       -2.110231
1.036                  0.9960019        -2.71314
1.04                    0.997823       -3.354433
1.044                  0.9999394       -4.045595
1.048                   1.001975       -4.789435
1.052                   1.003565        -5.57965
1.056                   1.004418        -6.40198
1.06                     1.00437        -7.23666
1.064                   1.003412       -8.061707
1.068                   1.001694       -8.856605
1.072                  0.9995064       -9.605831
1.076                   0.997227        -10.3018
1.08                   0.9952593       -10.94635
1.084                  0.9939603       -11.55112
1.088                  0.9935733       -12.13549
1.092                  0.9941814       -12.72332
1.096                  0.9956886       -13.33845
1.1                    0.9978348       -14.00032
1.104                   1.000242       -14.72028
1.108                   1.002481       -15.49966
1.112                   1.004148       -16.32958
1.116                   1.004935       -17.19256
1.12                    1.004683       -18.06551
1.124                   1.003415       -18.92352
1.128                    1.00133       -19.74389
1.132                  0.9987788       -20.51027
1.136                  0.9962029       -21.21564
1.14                   0.9940607       -21.86402
1.144                  0.9927436       -22.47028
1.148                  0.9925038       -23.05784
1.152                  0.9934034       -23.65449
1.156                  0.9952988        -24.2872
1.16                   0.9978644       -24.97703
1.164                    1.00065       -25.73525
1.168                   1.003161       -26.56139
1.172                   1.004943       -27.44345
1.176                   1.005665       -28.36002
1.18                    1.005176       -29.28387
1.184                   1.003532       -30.18634
1.188                   1.000993       -31.04207
1.192                  0.9979846       -31.83343
1.196                  0.9950282       -32.55396
1.2                    0.9926511       -33.21013
1.204                  0.9912915       -33.82092
1.208                  0.9912149       -34.41475
1.212                  0.9924596       -35.02443
1.216                  0.9948247       -35.68094
1.22                   0.9979025       -36.40755
1.224                   1.001152       -37.21552
1.228                   1.003992       -38.10225
1.232                   1.005907       -39.05188
1.236                   1.006531       -40.03805
1.24                    1.005717       -41.02824
1.244                   1.003564        -41.9889
1.248                   1.000408       -42.89094
1.252                  0.9967717       -43.71479
1.256                  0.9932805       -44.45442
1.26                   0.9905577       -45.11931
1.264                  0.9891079       -45.73371
1.268                  0.9892208       -46.33276
1.272                  0.9909088       -46.95615
1.276                   0.993898       -47.64055
1.28                   0.9976739       -48.41253
1.284                   1.001572       -49.28371
1.288                   1.004896       -50.24897
1.292                   1.007035       -51.28756
1.296                   1.007574       -52.36663
1.3                     1.006364       -53.44654
1.304                   1.003551       -54.48689
1.308                  0.9995683       -55.45308
1.312                  0.9950692       -56.32234
1.316                  0.9908267       -57.08862
1.32                   0.9876016       -57.76508
1.324                  0.9860009       -58.38307
1.328                  0.9863581        -58.9873
1.332                  0.9886585       -59.62753
1.336                  0.9925314       -60.34899
1.34                   0.9973121       -61.18353
1.344                   1.002159        -62.1439
1.348                     1.0062       -63.22185
1.352                   1.008684       -64.39003
1.356                   1.009104       -65.60652
1.36                    1.007294       -66.82117
1.364                   1.003456       -67.98323
1.368                  0.9981533         -69.049
1.372                  0.9922318       -69.98964
1.376                  0.9866904       -70.79764
1.38                    0.982514       -71.49052
1.384                  0.9804898       -72.10996
1.388                  0.9810453       -72.71561
1.392                  0.9841479       -73.37389
1.396                  0.9892939       -74.14483
1.4                    0.9955914       -75.07021
1.404                   1.001916       -76.16613
1.408                   1.007107       -77.42089
1.412                   1.010162       -78.79777
1.416                   1.010402       -80.24113
1.42                    1.007591       -81.68431
1.424                    1.00199       -83.05877
1.428                  0.9943493       -84.30411
1.432                  0.9858217       -85.37856
1.436                     0.9778       -86.26893
1.44                   0.9716909       -86.99759
1.444                  0.9686502       -87.62336
1.448                  0.9693358       -88.23373
1.452                  0.9737402       -88.92864
1.456                  0.9811564       -89.79978
1.46                   0.9902882       -90.91234
1.464                  0.9994747        -92.2934
1.468                   1.006971        -93.9296
1.472                   1.011227       -95.77143
1.476                   1.011128       -97.74149
1.48                    1.006172       -99.74438
1.484                  0.9965827       -101.6775
1.488                  0.9833369       -103.4435
1.492                  0.9681058       -104.9656
1.496                  0.9530752       -106.2059
1.5                    0.9406341       -107.1848
1.504                  0.9329367       -107.9928
1.508                  0.9314124       -108.7877
1.512                  0.9363499       -109.7691
1.516                  0.9467063        -111.138
1.52                   0.9602095       -113.0566
1.524                  0.9736987       -115.6246
1.528                  0.9835745       -118.8769
1.532                  0.9862271       -122.7962
1.536                  0.9783737       -127.3308
1.54                   0.9572902       -132.4101
1.544                  0.9209529       -137.9555
1.548                  0.8681119       -143.8865
1.552                  0.7983162       -150.1216
1.556                   0.711901       -156.5751
1.56                   0.6099484       -163.1456
1.564                  0.4942262       -169.6863
1.568                  0.3671208       -175.9069
1.572                  0.2316313        179.0801
1.576                 0.09228822       -178.6353
1.58                  0.06051225       -46.89895
1.584                  0.1988109       -36.81731
1.588                  0.3356263       -41.17908
1.592                  0.4648361       -47.24519
1.596                  0.5832769        -53.7528
1.6                    0.6884422       -60.34099
1.604                  0.7784341       -66.84282
1.608                  0.8520241       -73.15049
1.612                  0.9087156       -79.17633
1.616                  0.9487877       -84.83881
1.62                   0.9733117       -90.05788
1.624                  0.9841349       -94.75503
1.628                  0.9838176       -98.85801
1.632                  0.9755095       -102.3104
1.636                  0.9627413       -105.0861
1.64                    0.949116       -107.2067
1.644                  0.9379043       -108.7554
1.648                  0.9315995       -109.8794
1.652                  0.9315447       -110.7712
1.656                  0.9377711       -111.6322
1.66                   0.9491176       -112.6312
1.664                  0.9635976       -113.8752
1.668                  0.9788748       -115.4012
1.672                  0.9927138        -117.185
1.676                    1.00332       -119.1591
1.68                    1.009544       -121.2317
1.684                    1.01097       -123.3021
1.688                   1.007906       -125.2736
1.692                   1.001296       -127.0646
1.696                  0.9925593       -128.6182
1.7                    0.9833745       -129.9107
1.704                  0.9754152       -130.9574
1.708                  0.9700744       -131.8117
1.712                  0.9682273       -132.5569
1.716                  0.9700886       -133.2899
1.72                    0.975205       -134.1013
1.724                  0.9825814       -135.0583
1.728                  0.9909024        -136.194
1.732                  0.9987877        -137.506
1.736                   1.005025       -138.9621
1.74                    1.008748       -140.5086
1.744                   1.009542       -142.0805
1.748                   1.007475        -143.612
1.752                   1.003062       -145.0445
1.756                  0.9971786       -146.3356
1.76                   0.9909052       -147.4651
1.764                  0.9853556       -148.4386
1.768                  0.9814863       -149.2877
1.772                  0.9799314       -150.0645
1.776                  0.9808973       -150.8314
1.78                   0.9841391       -151.6493
1.784                  0.9890269       -152.5656
1.788                  0.9946789       -153.6066
1.792                   1.000131       -154.7747
1.796                   1.004504       -156.0503
1.8                     1.007141       -157.3968
1.804                     1.0077       -158.7683
1.808                   1.006188       -160.1161
1.812                   1.002951       -161.3963
1.816                  0.9986054       -162.5766
1.82                   0.9939343       -163.6407
1.824                   0.989755       -164.5916
1.828                  0.9867802       -165.4512
1.832                  0.9854944       -166.2565
1.836                   0.986073       -167.0527
1.84                   0.9883595       -167.8847
1.844                  0.9919062       -168.7882
1.848                  0.9960672       -169.7843
1.852                   1.000121       -170.8762
1.856                   1.003395       -172.0507
1.86                    1.005378       -173.2808
1.864                   1.005791       -174.5318
1.868                   1.004627       -175.7661
1.872                   1.002138       -176.9498
1.876                  0.9987897       -178.0575
1.88                   0.9951804       -179.0764
1.884                  0.9919378        179.9916
1.888                  0.9896122          179.13
1.892                   0.988581        178.3106
1.896                  0.9889859         177.499
1.9                    0.9907139        176.6608
1.904                  0.9934263        175.7682
1.908                  0.9966274        174.8046
1.912                  0.9997582        173.7668
1.916                   1.002294        172.6648
1.92                     1.00383         171.519
1.924                   1.004146        170.3568
1.928                   1.003231        169.2075
1.932                   1.001281        168.0979
1.936                  0.9986588        167.0479
1.94                   0.9958321        166.0675
1.944                  0.9932908         165.155
1.948                   0.991463        164.2974
1.952                   0.990642        163.4729
1.956                   0.990937        162.6548
1.96                   0.9922595        161.8165
1.964                  0.9943462        160.9364
1.968                  0.9968111        160.0014
1.972                  0.9992188        159.0093
1.976                   1.001161        157.9675
1.98                    1.002323        156.8922
1.984                   1.002536        155.8048
1.988                   1.001794        154.7282
1.992                   1.000252        153.6831
1.996                  0.9981975        152.6849
2                      0.9959926        151.7409
2.004                  0.9940156        150.8494
2.008                   0.992594        150.0002
2.012                  0.9919479        149.1763
2.016                  0.9921558        148.3571
2.02                   0.9931447        147.5225
2.024                    0.99471        146.6561
2.028                   0.996555        145.7484
2.032                  0.9983493        144.7976
2.036                  0.9997849        143.8099
2.04                    1.000629        142.7975
2.044                   1.000758        141.7768
2.048                   1.000175        140.7649
2.052                  0.9990035        139.7772
2.056                  0.9974605        138.8248
2.06                   0.9958175        137.9126
2.064                  0.9943513        137.0389
2.068                  0.9932958        136.1957
2.072                  0.9928045        135.3702
2.076                  0.9929252        134.5477
2.08                   0.9935976        133.7139
2.084                  0.9946694        132.8574
2.088                  0.9959274        131.9717
2.092                  0.9971393        131.0562
2.096                  0.9980929        130.1153
2.1                    0.9986333         129.158
2.104                  0.9986845        128.1956
2.108                  0.9982569        127.2396
2.112                  0.9974411        126.3002
2.116                  0.9963868        125.3842
2.12                   0.9952731        124.4943
2.124                  0.9942761        123.6287
2.128                  0.9935383        122.7819
2.132                  0.9931464        121.9456
2.136                  0.9931203        121.1108
2.14                   0.9934147         120.269
2.144                  0.9939337        119.4138
2.148                   0.994552        118.5422
2.152                  0.9951399         117.654
2.156                  0.9955872        116.7521
2.16                   0.9958196        115.8417
2.164                  0.9958081        114.9283
2.168                   0.995568        114.0176
2.172                  0.9951502        113.1139
2.176                  0.9946259        112.2195
2.18                   0.9940708        111.3349
2.184                  0.9935494        110.4585
2.188                  0.9931043        109.5879
2.192                  0.9927521        108.7201
2.196                  0.9924862        107.8522
2.2                    0.9922839        106.9825
2.204                  0.9921184        106.1102
2.208                  0.9919678        105.2354
2.212                  0.9918235        104.3588
2.216                  0.9916916        103.4807
2.22                   0.9915893        102.6014
2.224                  0.9915369        101.7196
2.228                  0.9915466        100.8334
2.232                  0.9916121         99.9401
2.236                  0.9917026          99.037
2.24                    0.991762        98.12213
2.244                  0.9917168        97.19505
2.248                  0.9914891        96.25737
2.252                  0.9910155        95.31284
2.256                  0.9902647        94.36698
2.26                   0.9892525        93.42616
2.264                  0.9880476         92.4963
2.268                  0.9867685        91.58145
2.272                  0.9855663        90.68244
2.276                  0.9846004        89.79607
2.28                   0.9840048        88.91489
2.284                  0.9838579        88.02798
2.288                  0.9841564        87.12251
2.292                  0.9848041          86.186
2.296                  0.9856174        85.20863
2.3                    0.9863502        84.18545
2.304                  0.9867318        83.11777
2.308                  0.9865157        82.01331
2.312                  0.9855276        80.88555
2.316                  0.9837059        79.75161
2.32                    0.981126        78.62942
2.324                  0.9780017         77.5344
2.328                  0.9746618        76.47596
2.332                  0.9715014        75.45454
2.336                  0.9689128        74.46005
2.34                   0.9672086        73.47189
2.344                  0.9665488        72.46136
2.348                  0.9668909        71.39595
2.352                  0.9679727        70.24482