! TOUCHSTONE file generated by CST MICROWAVE STUDIO
! Date and time: Tue Jun 14 12:33:51 2022
! Project name: AppElm_antenne_patch_FR4.cst
! Parameters = {L=45; W=58.5; e=0.035; h=1.6; lambda=0.190476; ls=120; w0=2.54; w1=0.974; ws=120; y0=18; y1=23.8}
! Header version: 2018
! Port assignment regex: !\s*Touchstone port\s*([0-9]+)\s*=\s*(CST MWS port|CST DS port)\s*([0-9]+|Zmin|Zmax)\s*\(\"(.*)\"\)(\s*mode\s*([0-9]+))?.*
! Touchstone port assignment:
! Touchstone port 1 = CST MWS port 1 ("")
# GHz S MA R 50
0                       0.987217              -0
0.004                  0.9879639       -9.968783
0.008                  0.9901033        -19.8453
0.012                  0.9933464       -29.54205
0.016                  0.9972611       -38.98028
0.02                    1.001335       -48.09254
0.024                   1.005051       -56.82379
0.028                    1.00795       -65.13133
0.032                   1.009698       -72.98402
0.036                   1.010118       -80.36134
0.04                    1.009212       -87.25266
0.044                   1.007156       -93.65704
0.048                   1.004272       -99.58318
0.052                   1.000984       -105.0498
0.056                  0.9977573       -110.0853
0.06                   0.9950349       -114.7276
0.064                  0.9931728       -119.0216
0.068                  0.9923909        -123.017
0.072                   0.992744       -126.7643
0.076                  0.9941193       -130.3103
0.08                   0.9962593       -133.6951
0.084                  0.9988073       -136.9493
0.088                   1.001366       -140.0924
0.092                   1.003556       -143.1338
0.096                   1.005074       -146.0737
0.1                      1.00573       -148.9063
0.104                   1.005468        -151.622
0.108                   1.004375       -154.2114
0.112                   1.002657       -156.6671
0.116                   1.000606       -158.9869
0.12                   0.9985551       -161.1751
0.124                  0.9968261       -163.2426
0.128                   0.995679       -165.2065
0.132                  0.9952725       -167.0883
0.136                  0.9956427       -168.9107
0.14                   0.9967002       -170.6954
0.144                  0.9982494       -172.4598
0.148                   1.000024       -174.2151
0.152                   1.001731       -175.9656
0.156                     1.0031       -177.7086
0.16                    1.003925       -179.4359
0.164                   1.004091        178.8644
0.168                   1.003592        177.2055
0.172                    1.00253        175.5994
0.176                   1.001093         174.055
0.18                   0.9995248        172.5759
0.184                  0.9980854        171.1603
0.188                  0.9970073        169.8004
0.192                  0.9964594        168.4838
0.196                  0.9965184        167.1954
0.2                    0.9971591        165.9197
0.204                  0.9982604        164.6432
0.208                  0.9996277        163.3564
0.212                   1.001028        162.0554
0.216                   1.002227        160.7417
0.22                    1.003032         159.422
0.224                   1.003317        158.1065
0.228                   1.003044        156.8074
0.232                    1.00227        155.5366
0.236                   1.001131        154.3034
0.24                   0.9998244        153.1136
0.244                  0.9985702        151.9679
0.248                  0.9975784        150.8617
0.252                  0.9970119        149.7861
0.256                  0.9969597         148.729
0.26                   0.9974222        147.6777
0.264                   0.998313        146.6203
0.268                  0.9994745        145.5481
0.272                   1.000706        144.4569
0.276                   1.001798        143.3475
0.28                    1.002567        142.2253
0.284                   1.002888        141.0995
0.288                   1.002712        139.9812
0.292                   1.002074        138.8814
0.296                   1.001087        137.8097
0.3                    0.9999206        136.7722
0.304                  0.9987758        135.7703
0.308                  0.9978471         134.801
0.312                  0.9972919        133.8568
0.316                   0.997202        132.9273
0.32                    0.997589        132.0007
0.324                  0.9983816         131.066
0.328                  0.9994406        130.1151
0.332                   1.000582        129.1437
0.336                   1.001609        128.1522
0.34                    1.002346        127.1455
0.344                    1.00267        126.1319
0.348                   1.002528        125.1221
0.352                   1.001947        124.1267
0.356                   1.001028        123.1551
0.36                   0.9999305        122.2133
0.364                  0.9988447        121.3032
0.368                  0.9979574        120.4223
0.372                  0.9974223        119.5637
0.376                  0.9973303        118.7174
0.38                   0.9976962        117.8725
0.384                  0.9984547        117.0182
0.388                  0.9994725        116.1467
0.392                   1.000573        115.2538
0.396                   1.001564        114.3397
0.4                     1.002276        113.4093
0.404                   1.002587        112.4708
0.408                   1.002443        111.5344
0.412                   1.001872        110.6108
0.416                   1.000972        109.7091
0.42                   0.9998991        108.8353
0.424                  0.9988406        107.9914
0.428                  0.9979812        107.1747
0.432                  0.9974706        106.3785
0.436                  0.9973987        105.5931
0.44                    0.997778        104.8075
0.444                  0.9985418        104.0112
0.448                  0.9995563        103.1965
0.452                   1.000644        102.3594
0.456                   1.001615        101.5004
0.46                    1.002301        100.6244
0.464                   1.002581         99.7398
0.468                   1.002407          98.857
0.472                   1.001807        97.98663
0.476                   1.000886        97.13776
0.48                   0.9998026         96.3163
0.484                  0.9987461          95.524
0.488                  0.9979015        94.75793
0.492                  0.9974175         94.0111
0.496                  0.9973799        93.27351
0.5                    0.9977958        92.53402
0.504                  0.9985924        91.78229
0.508                    0.99963        91.01059
0.512                   1.000726        90.21528
0.516                   1.001687        89.39724
0.52                    1.002345        88.56187
0.524                   1.002583        87.71792
0.528                   1.002357        86.87611
0.532                   1.001705        86.04725
0.536                   1.000739        85.24044
0.54                   0.9996256        84.46135
0.544                  0.9985611         83.7113
0.548                  0.9977326        82.98692
0.552                  0.9972873        82.28058
0.556                  0.9973058        81.58184
0.56                   0.9977865        80.87918
0.564                  0.9986459        80.16214
0.568                  0.9997332        79.42325
0.572                   1.000857        78.65917
0.576                   1.001819        77.87146
0.58                    1.002449        77.06611
0.584                   1.002635        76.25257
0.588                   1.002341        75.44207
0.592                   1.001615        74.64575
0.596                   1.000583        73.87263
0.6                    0.9994249        73.12817
0.604                  0.9983435         72.4131
0.608                  0.9975309        71.72331
0.612                   0.997133        71.05037
0.616                  0.9972229        70.38316
0.62                   0.9977872        69.70966
0.624                   0.998728        69.01926
0.628                  0.9998797        68.30469
0.632                   1.001039         67.5632
0.636                      1.002         66.7971
0.64                    1.002592        66.01328
0.644                   1.002707        65.22205
0.648                   1.002321        64.43529
0.652                   1.001498         63.6645
0.656                    1.00038        62.91873
0.66                   0.9991605        62.20301
0.664                  0.9980555        61.51736
0.668                  0.9972621        60.85667
0.672                  0.9969237        60.21154
0.676                  0.9971038        59.56989
0.68                   0.9977738        58.91913
0.684                  0.9988173        58.24852
0.688                   1.000051        57.55099
0.692                   1.001256        56.82454
0.696                   1.002218        56.07244
0.7                     1.002765         55.3027
0.704                   1.002797        54.52663
0.708                   1.002303        53.75693
0.712                   1.001365        53.00551
0.716                   1.000146        52.28139
0.72                   0.9988578        51.58906
0.724                  0.9977297        50.92764
0.728                  0.9969642        50.29084
0.732                  0.9967012          49.668
0.736                  0.9969919          49.046
0.74                   0.9977888        48.41158
0.744                  0.9989532        47.75383
0.748                    1.00028         47.0661
0.752                   1.001533        46.34724
0.756                   1.002489        45.60171
0.76                    1.002975        44.83886
0.764                   1.002899        44.07121
0.768                    1.00227        43.31239
0.772                   1.001191        42.57475
0.776                  0.9998479         41.8672
0.78                   0.9984763        41.19362
0.784                  0.9973194        40.55196
0.788                  0.9965854        39.93455
0.792                  0.9964095        39.32925
0.796                  0.9968277        38.72172
0.8                    0.9977697        38.09797
0.804                  0.9990707        37.44693
0.808                     1.0005        36.76249
0.812                   1.001803        36.04454
0.816                   1.002746        35.29898
0.82                    1.003157        34.53667
0.824                   1.002955        33.77155
0.828                   1.002168        33.01822
0.832                   1.000929        32.28952
0.836                  0.9994511        31.59421
0.84                   0.9979933        30.93529
0.844                   0.996816        30.30938
0.848                  0.9961327         29.7071
0.852                  0.9960714        29.11465
0.856                  0.9966494        28.51629
0.86                   0.9977691         27.8972
0.864                  0.9992349        27.24626
0.868                   1.000788          26.558
0.872                    1.00215        25.83361
0.876                   1.003078        25.08068
0.88                      1.0034        24.31183
0.884                   1.003052        23.54256
0.888                   1.002086        22.78867
0.892                   1.000664        22.06346
0.896                   0.999033        21.37541
0.9                      0.99748        20.72655
0.904                  0.9962834        20.11188
0.908                  0.9956621        19.52005
0.912                  0.9957344        18.93533
0.916                  0.9964949        18.34042
0.92                   0.9978143        17.71965
0.924                  0.9994612        17.06188
0.928                   1.001144         16.3625
0.932                    1.00256        15.62423
0.936                   1.003455        14.85661
0.94                    1.003661         14.0743
0.944                   1.003131        13.29463
0.948                   1.001947        12.53465
0.952                   1.000308        11.80817
0.956                  0.9984975        11.12333
0.96                   0.9968349        10.48093
0.964                  0.9956194        9.874019
0.968                  0.9950745        9.288976
0.972                  0.9953071        8.707798
0.976                  0.9962842        8.111405
0.98                    0.997839        7.483165
0.984                  0.9996986        6.811976
0.988                   1.001533        6.094259
0.992                   1.003014        5.334548
0.996                   1.003873         4.54465
1                       1.003946        3.741599
1.004                   1.003209        2.944788
1.008                   1.001778        2.172702
1.012                  0.9998938        1.439733
1.016                  0.9978844       0.7535451
1.02                   0.9961056        0.113466
1.024                  0.9948794      -0.4897078
1.028                  0.9944347       -1.072315
1.032                   0.994863       -1.654982
1.036                  0.9960991       -2.258842
1.04                   0.9979312       -2.901591
1.044                   1.000038       -3.594213
1.048                   1.002045       -4.339026
1.052                   1.003592       -5.129331
1.056                   1.004396       -5.950635
1.06                      1.0043       -6.783118
1.064                   1.003305       -7.604947
1.068                   1.001568       -8.395929
1.072                  0.9993802       -9.140996
1.076                  0.9971215       -9.833004
1.08                   0.9951915       -10.47436
1.084                  0.9939404       -11.07697
1.088                  0.9936031       -11.66041
1.092                  0.9942535       -12.24846
1.096                  0.9957879       -12.86468
1.1                    0.9979417       -13.52808
1.104                   1.000335       -14.24948
1.108                   1.002542       -15.02974
1.112                   1.004164       -15.85955
1.116                   1.004901       -16.72136
1.12                    1.004602       -17.59188
1.124                   1.003299        -18.4465
1.128                   1.001196       -19.26285
1.132                   0.998649       -20.02504
1.136                  0.9960973       -20.72654
1.14                   0.9939951       -21.37185
1.144                  0.9927271       -21.97616
1.148                  0.9925366       -22.56302
1.152                  0.9934764       -23.16011
1.156                   0.995396       -23.79406
1.16                   0.9979652       -24.48549
1.164                   1.000733       -25.24513
1.168                   1.003208       -26.07204
1.172                   1.004944       -26.95388
1.176                   1.005616       -27.86905
1.18                    1.005081       -28.79036
1.184                   1.003404       -29.68936
1.188                   1.000851       -30.54106
1.192                  0.9978503       -31.32831
1.196                  0.9949212       -32.04514
1.2                    0.9925863       -32.69849
1.204                  0.9912766       -33.30763
1.208                  0.9912483       -33.90108
1.212                  0.9925309       -34.51147
1.216                  0.9949166       -35.16945
1.22                   0.9979942       -35.89778
1.224                   1.001222       -36.70721
1.228                   1.004025       -37.59469
1.232                   1.005892       -38.54404
1.236                   1.006466       -39.52879
1.24                    1.005609       -40.51646
1.244                   1.003427       -41.47375
1.248                   1.000261       -42.37196
1.252                  0.9966346         -43.192
1.256                  0.9931732       -43.92834
1.26                   0.9904935       -44.59088
1.264                  0.9890927       -45.20413
1.268                   0.989251       -45.80327
1.272                  0.9909726       -46.42781
1.276                  0.9939774       -47.11402
1.28                   0.9977484       -47.88794
1.284                   1.001622       -48.76074
1.288                   1.004905       -49.72685
1.292                   1.006997       -50.76527
1.296                   1.007488       -51.84308
1.3                     1.006238       -52.92072
1.304                     1.0034       -53.95812
1.308                   0.999411       -54.92104
1.312                  0.9949257       -55.78716
1.316                  0.9907141       -56.55094
1.32                   0.9875308        -57.2259
1.324                  0.9859752       -57.84359
1.328                   0.986372       -58.44869
1.332                  0.9886988       -59.09076
1.336                    0.99258       -59.81457
1.34                   0.9973494       -60.65148
1.344                   1.002168        -61.6138
1.348                   1.006168       -62.69295
1.352                   1.008606        -63.8614
1.356                   1.008984        -65.0772
1.36                     1.00714       -66.29044
1.364                   1.003284       -67.45061
1.368                  0.9979815       -68.51441
1.372                  0.9920765       -69.45346
1.376                  0.9865646       -70.26063
1.38                   0.9824245       -70.95373
1.384                  0.9804353        -71.5746
1.388                  0.9810168       -72.18266
1.392                  0.9841308       -72.84409
1.396                  0.9892711       -73.61848
1.4                    0.9955462       -74.54717
1.404                   1.001836       -75.64588
1.408                   1.006987       -76.90275
1.412                   1.010002       -78.28111
1.416                    1.01021       -79.72538
1.42                    1.007378       -81.16921
1.424                   1.001771       -82.54443
1.428                  0.9941389       -83.79102
1.432                  0.9856293       -84.86757
1.436                  0.9776293       -85.76112
1.44                   0.9715377       -86.49414
1.444                  0.9685035        -87.1253
1.448                  0.9691791       -87.74177
1.452                  0.9735558       -88.44298
1.456                  0.9809296       -89.32025
1.46                   0.9900104       -90.43846
1.464                  0.9991463       -91.82472
1.468                     1.0066       -93.46582
1.472                    1.01083       -95.31268
1.476                   1.010723       -97.28843
1.48                    1.005779       -99.29826
1.484                  0.9962149       -101.2402
1.488                  0.9829985       -103.0174
1.492                  0.9677868       -104.5535
1.496                  0.9527496       -105.8107
1.5                    0.9402602       -106.8088
1.504                  0.9324629       -107.6372
1.508                  0.9307859       -108.4526
1.512                  0.9355284       -109.4535
1.516                  0.9456683       -110.8404
1.52                   0.9589596       -112.7759
1.524                  0.9722685       -115.3608
1.528                  0.9820193       -118.6319
1.532                  0.9846189       -122.5741
1.536                  0.9767961       -127.1379
1.54                   0.9558312       -132.2556
1.544                  0.9196992       -137.8525
1.548                  0.8671432       -143.8533
1.552                  0.7976998       -150.1851
1.556                  0.7116864        -156.776
1.56                   0.6101599       -163.5513
1.564                  0.4948517       -170.4192
1.568                  0.3680829       -177.2291
1.572                  0.2326785        176.4243
1.576                 0.09203995        173.2037
1.58                  0.05302543       -33.25421
1.584                  0.1940965       -31.87184
1.588                  0.3312009       -37.89051
1.592                  0.4604806       -44.64025
1.596                  0.5789971       -51.51828
1.6                    0.6843022       -58.33783
1.604                  0.7745156       -64.99784
1.608                  0.8484088       -71.42103
1.612                  0.9054756       -77.53592
1.616                  0.9459772       -83.27053
1.62                   0.9709618        -88.5508
1.624                  0.9822479       -93.30231
1.628                  0.9823648       -97.45551
1.632                  0.9744305       -100.9557
1.636                  0.9619475       -103.7773
1.64                   0.9484992       -105.9414
1.644                  0.9373507       -107.5301
1.648                  0.9310076       -108.6884
1.652                  0.9308437       -109.6072
1.656                   0.936932       -110.4873
1.66                   0.9481561       -111.4983
1.664                  0.9625648        -112.749
1.668                  0.9778437       -114.2787
1.672                  0.9917634       -116.0654
1.676                    1.00252       -118.0437
1.68                    1.008946       -120.1229
1.684                   1.010597       -122.2032
1.688                    1.00775       -124.1882
1.692                   1.001319        -125.996
1.696                  0.9926962       -127.5688
1.7                     0.983544       -128.8816
1.704                  0.9755314       -129.9474
1.708                  0.9700629       -130.8179
1.712                  0.9680388       -131.5745
1.716                  0.9697093       -132.3134
1.72                    0.974658       -133.1255
1.724                  0.9819221       -134.0791
1.728                  0.9902071       -135.2093
1.732                  0.9981384       -136.5158
1.736                   1.004497       -137.9681
1.74                    1.008396        -139.514
1.744                   1.009393       -141.0895
1.748                   1.007523       -142.6288
1.752                   1.003274       -144.0731
1.756                  0.9974891       -145.3789
1.76                   0.9912351       -146.5243
1.764                  0.9856214       -147.5132
1.768                  0.9816149       -148.3751
1.772                  0.9798747       -149.1603
1.776                   0.980641       -149.9305
1.78                   0.9837058       -150.7468
1.784                  0.9884714       -151.6576
1.788                  0.9940779        -152.691
1.792                  0.9995686       -153.8514
1.796                   1.004058        -155.121
1.8                     1.006869       -156.4651
1.804                   1.007632       -157.8384
1.808                    1.00632       -159.1927
1.812                   1.003247       -160.4837
1.816                  0.9990009       -161.6778
1.82                   0.9943467       -162.7573
1.824                  0.9900979        -163.723
1.828                  0.9869785       -164.5947
1.832                  0.9854981       -165.4079
1.836                  0.9858666       -166.2068
1.84                   0.9879651       -167.0364
1.844                  0.9913799       -167.9335
1.848                  0.9954882       -168.9209
1.852                  0.9995772        -170.004
1.856                   1.002969       -171.1715
1.86                    1.005132       -172.3983
1.864                   1.005758       -173.6505
1.868                   1.004804        -174.891
1.872                   1.002486       -176.0854
1.876                  0.9992417       -177.2072
1.88                    0.995649       -178.2418
1.884                  0.9923322       -179.1889
1.888                  0.9898529        179.9371
1.892                  0.9886149        179.1098
1.896                  0.9887962        178.2957
1.9                    0.9903234        177.4604
1.904                  0.9928939         176.575
1.908                   0.996037        175.6209
1.912                  0.9992039         174.593
1.916                   1.001864        173.4988
1.92                    1.003593        172.3571
1.924                   1.004136         171.194
1.928                   1.003445        170.0385
1.932                   1.001679        168.9177
1.936                  0.9991673        167.8529
1.94                   0.9963579         166.856
1.944                  0.9937361        165.9276
1.948                  0.9917426        165.0571
1.952                  0.9906987        164.2245
1.956                  0.9907528        163.4041
1.96                    0.991859        162.5691
1.964                  0.9937924         161.697
1.968                  0.9961946        160.7728
1.972                  0.9986415        159.7916
1.976                   1.000719        158.7587
1.98                     1.00209        157.6883
1.984                   1.002549        156.6002
1.988                    1.00205        155.5171
1.992                   1.000707        154.4602
1.996                  0.9987699        153.4462
2                      0.9965813        152.4846
2.004                  0.9945143        151.5764
2.008                  0.9929101        150.7137
2.012                  0.9920201        149.8814
2.016                  0.9919651        149.0603
2.02                   0.9927187        148.2299
2.024                  0.9941178        147.3728
2.028                  0.9958961        146.4773
2.032                  0.9977353         145.539
2.036                  0.9993209        144.5615
2.04                    1.000395        143.5548
2.044                   1.000795        142.5337
2.048                   1.000479        141.5149
2.052                  0.9995227        140.5146
2.056                   0.998106        139.5452
2.06                   0.9964766        138.6143
2.064                  0.9949068        137.7227
2.068                  0.9936474        136.8654
2.072                  0.9928857        136.0316
2.076                  0.9927165        135.2078
2.08                    0.993131        134.3794
2.084                  0.9940226        133.5339
2.088                  0.9952112        132.6625
2.092                  0.9964775        131.7614
2.096                  0.9976023        130.8324
2.1                     0.998402        129.8819
2.104                  0.9987564        128.9194
2.108                  0.9986245        127.9562
2.112                  0.9980457         127.003
2.116                  0.9971268        126.0686
2.12                    0.996022        125.1584
2.124                  0.9949038        124.2738
2.128                  0.9939336        123.4121
2.132                  0.9932373        122.5676
2.136                  0.9928877        121.7324
2.14                   0.9928967        120.8978
2.144                  0.9932194         120.056
2.148                  0.9937667        119.2012
2.152                  0.9944238        118.3301
2.156                  0.9950705        117.4422
2.16                   0.9955999        116.5398
2.164                  0.9959329        115.6267
2.168                  0.9960258        114.7081
2.172                  0.9958706        113.7892
2.176                  0.9954919        112.8745
2.18                   0.9949377        111.9676
2.184                  0.9942696        111.0706
2.188                  0.9935533        110.1845
2.192                  0.9928512        109.3086
2.196                  0.9922168        108.4417
2.2                    0.9916926        107.5817
2.204                  0.9913094         106.726
2.208                  0.9910865        105.8717
2.212                   0.991031        105.0156
2.216                   0.991137        104.1545
2.22                   0.9913834         103.285
2.224                  0.9917313         102.404
2.228                   0.992124        101.5091
2.232                  0.9924877        100.5986
2.236                  0.9927377        99.67266
2.24                   0.9927874        98.73294
2.244                  0.9925617         97.7832
2.248                   0.992011        96.82895
2.252                  0.9911258        95.87685
2.256                  0.9899455         94.9339
2.26                   0.9885611        94.00616
2.264                  0.9871091        93.09744
2.268                  0.9857557        92.20829
2.272                  0.9846708        91.33505
2.276                  0.9839989        90.46988
2.28                   0.9838277        89.60138
2.284                  0.9841645        88.71613
2.288                  0.9849223         87.8007
2.292                  0.9859241        86.84409
2.296                  0.9869221        85.83989
2.3                    0.9876342        84.78772
2.304                   0.987789        83.69391
2.308                  0.9871744        82.57086
2.312                  0.9856812        81.43552
2.316                  0.9833326        80.30679
2.32                   0.9802957        79.20239
2.324                  0.9768677        78.13535
2.328                  0.9734378         77.1108
2.332                  0.9704267        76.12363
2.336                  0.9682112        75.15777
2.34                   0.9670471        74.18734
2.344                   0.967005        73.18019
2.348                  0.9679355        72.10287
2.352                  0.9694714        70.92646