! TOUCHSTONE file generated by CST MICROWAVE STUDIO
! Date and time: Tue Jun 14 12:33:53 2022
! Project name: AppElm_antenne_patch_FR4.cst
! Parameters = {L=45; W=58.5; e=0.035; h=1.6; lambda=0.190476; ls=120; w0=2.54; w1=1.0587; ws=120; y0=18; y1=23.8}
! Header version: 2018
! Port assignment regex: !\s*Touchstone port\s*([0-9]+)\s*=\s*(CST MWS port|CST DS port)\s*([0-9]+|Zmin|Zmax)\s*\(\"(.*)\"\)(\s*mode\s*([0-9]+))?.*
! Touchstone port assignment:
! Touchstone port 1 = CST MWS port 1 ("")
# GHz S MA R 50
0                      0.9871421              -0
0.004                  0.9878902       -9.964595
0.008                  0.9900335       -19.83725
0.012                  0.9932838       -29.53079
0.016                  0.9972099       -38.96672
0.02                      1.0013       -48.07779
0.024                   1.005036       -56.80911
0.028                   1.007961       -65.11807
0.032                   1.009735       -72.97353
0.036                   1.010181       -80.35494
0.04                    1.009297       -87.25158
0.044                   1.007256       -93.66228
0.048                   1.004377       -99.59553
0.052                   1.001081       -105.0697
0.056                  0.9978335       -110.1128
0.06                   0.9950793       -114.7625
0.064                  0.9931782       -119.0633
0.068                   0.992355       -123.0647
0.072                  0.9926706       -126.8171
0.076                   0.994018       -130.3676
0.08                   0.9961442       -133.7565
0.084                  0.9986953       -137.0145
0.088                   1.001274       -140.1618
0.092                   1.003499       -143.2078
0.096                    1.00506       -146.1532
0.1                     1.005763       -148.9923
0.104                   1.005544       -151.7155
0.108                   1.004483       -154.3131
0.112                   1.002781       -156.7777
0.116                   1.000727       -159.1065
0.12                   0.9986543       -161.3034
0.124                  0.9968873       -163.3788
0.128                  0.9956918       -165.3497
0.132                  0.9952348       -167.2371
0.136                  0.9955601        -169.064
0.14                   0.9965858       -170.8523
0.144                  0.9981217       -172.6197
0.148                  0.9999035       -174.3779
0.152                   1.001637       -176.1316
0.156                   1.003049       -177.8786
0.16                    1.003924       -179.6109
0.164                    1.00414        178.6832
0.168                   1.003684         177.017
0.172                    1.00265        175.4029
0.176                    1.00122          173.85
0.18                    0.999638        172.3626
0.184                  0.9981653        170.9393
0.188                  0.9970404        169.5726
0.192                  0.9964395        168.2505
0.196                  0.9964484        166.9578
0.2                    0.9970505         165.679
0.204                  0.9981311        164.4001
0.208                  0.9994993        163.1113
0.212                   1.000922        161.8079
0.216                   1.002162        160.4912
0.22                    1.003018        159.1674
0.224                   1.003356        157.8466
0.228                   1.003131         156.541
0.232                   1.002389        155.2627
0.236                   1.001264        154.0217
0.24                   0.9999469         152.824
0.244                  0.9986623        151.6708
0.248                  0.9976243        150.5581
0.252                  0.9970036        149.4772
0.256                  0.9968985        148.4164
0.26                   0.9973185        147.3623
0.264                  0.9981848         146.303
0.268                  0.9993436        145.2294
0.272                   1.000595        144.1365
0.276                   1.001725        143.0248
0.28                    1.002546        141.8992
0.284                   1.002922        140.7688
0.288                   1.002796        139.6446
0.292                   1.002193         138.538
0.296                   1.001221        137.4589
0.3                     1.000047        136.4138
0.304                  0.9988722        135.4049
0.308                  0.9978975        134.4295
0.312                  0.9972871        133.4805
0.316                  0.9971429        132.5475
0.32                   0.9974856        131.6186
0.324                  0.9982519        130.6827
0.328                  0.9993068        129.7309
0.332                   1.000467        128.7584
0.336                   1.001533        127.7651
0.34                    1.002323        126.7556
0.344                   1.002703        125.7379
0.348                   1.002612        124.7227
0.352                   1.002068        123.7209
0.356                   1.001165        122.7422
0.36                     1.00006        121.7933
0.364                  0.9989447        120.8766
0.368                  0.9980108          119.99
0.372                  0.9974194        119.1269
0.376                   0.997272        118.2777
0.38                   0.9975924        117.4309
0.384                  0.9983236        116.5758
0.388                  0.9993372        115.7039
0.392                   1.000456        114.8104
0.396                   1.001487        113.8951
0.4                     1.002252        112.9623
0.404                    1.00262          112.02
0.408                   1.002528        111.0787
0.412                   1.001994         110.149
0.416                   1.001109        109.2406
0.42                    1.000029        108.3601
0.424                  0.9989396        107.5099
0.428                  0.9980319        106.6879
0.432                  0.9974639        105.8878
0.436                  0.9973355        105.0998
0.44                   0.9976689        104.3129
0.444                  0.9984056        103.5163
0.448                  0.9994167        102.7016
0.452                   1.000525        101.8643
0.456                   1.001538        101.0045
0.46                    1.002278        100.1265
0.464                   1.002616        99.23848
0.468                   1.002494        98.35099
0.472                   1.001932        97.47484
0.476                   1.001026        96.61958
0.48                   0.9999336        95.79166
0.484                   0.998845        94.99342
0.488                  0.9979508        94.22243
0.492                  0.9974083        93.47202
0.496                  0.9973137        92.73231
0.5                    0.9976841        91.99198
0.504                  0.9984549         91.2403
0.508                  0.9994907        90.46903
0.512                   1.000609        89.67389
0.516                   1.001614        88.85525
0.52                    1.002328        88.01805
0.524                   1.002626        87.17089
0.528                   1.002452        86.32453
0.532                   1.001837        85.49006
0.536                   1.000884        84.67702
0.54                   0.9997593         83.8917
0.544                  0.9986599        83.13598
0.548                  0.9977792        82.40699
0.552                  0.9972736        81.69746
0.556                  0.9972342          80.997
0.56                   0.9976696        80.29391
0.564                  0.9985043        79.57733
0.568                   0.999592        78.83918
0.572                   1.000741        78.07555
0.576                   1.001749        77.28742
0.58                    1.002437         76.4804
0.584                   1.002683        75.66375
0.588                   1.002441         74.8488
0.592                   1.001751        74.04694
0.596                    1.00073        73.26775
0.6                    0.9995573        72.51723
0.604                  0.9984382        71.79674
0.608                   0.997571        71.10269
0.612                  0.9971115        70.42693
0.616                  0.9971435        69.75837
0.62                   0.9976639         69.0848
0.624                  0.9985825        68.39519
0.628                  0.9997378        67.68162
0.632                   1.000926        66.94075
0.636                   1.001936        66.17431
0.64                    1.002588        65.38884
0.644                   1.002765        64.59447
0.648                   1.002431        63.80321
0.652                   1.001642        63.02686
0.656                   1.000532        62.27504
0.66                   0.9992947        61.55336
0.664                  0.9981487        60.86247
0.668                   0.997298        60.19776
0.672                  0.9968962         59.5501
0.676                  0.9970183        58.90742
0.68                   0.9976455        58.25692
0.684                  0.9986694        57.58732
0.688                  0.9999097        56.89098
0.692                   1.001147        56.16521
0.696                   1.002161        55.41277
0.7                     1.002771         54.6413
0.704                   1.002864        53.86198
0.708                   1.002421        53.08767
0.712                   1.001514        52.33063
0.716                   1.000299        51.60044
0.72                   0.9989893        50.90224
0.724                  0.9978163        50.23576
0.728                  0.9969906        49.59518
0.732                  0.9966626        48.97014
0.736                  0.9968955        48.34745
0.74                   0.9976516        47.71358
0.744                  0.9987997        47.05706
0.748                   1.000137        46.37064
0.752                   1.001427        45.65248
0.756                   1.002439        44.90655
0.76                    1.002989        44.14182
0.764                   1.002977        43.37075
0.768                   1.002397        42.60714
0.772                   1.001346        41.86374
0.776                   1.000005        41.15006
0.78                   0.9986074        40.47063
0.784                  0.9974022        39.82403
0.788                  0.9966056        39.20304
0.792                  0.9963641        38.59577
0.796                  0.9967254         37.9878
0.8                    0.9976294        37.36479
0.804                  0.9989182        36.71512
0.808                   1.000363        36.03199
0.812                   1.001708        35.31464
0.816                   1.002709        34.56848
0.82                    1.003187        33.80403
0.824                   1.003048        33.03518
0.828                   1.002309        32.27678
0.832                   1.001095        31.54211
0.836                  0.9996136        30.84053
0.84                   0.9981251        30.17574
0.844                   0.996895        29.54498
0.848                   0.996146         28.9393
0.852                  0.9960176        28.34511
0.856                  0.9965392        27.74653
0.86                   0.9976234        27.12837
0.864                  0.9990809        26.47888
0.868                   1.000653        25.79192
0.872                   1.002061        25.06803
0.876                   1.003051        24.31427
0.88                    1.003441        23.54299
0.884                   1.003155        22.76972
0.888                   1.002235        22.01048
0.892                   1.000834        21.27908
0.896                  0.9991954        20.58467
0.9                    0.9976071        19.92995
0.904                  0.9963539        19.31054
0.908                  0.9956645        18.71552
0.912                  0.9956694        18.12929
0.916                  0.9963755        17.53439
0.92                    0.997663        16.91471
0.924                  0.9993064        16.25845
0.928                   1.001014         15.5603
0.932                   1.002481        14.82232
0.936                   1.003442        14.05358
0.94                    1.003718         13.2685
0.944                    1.00325        12.48445
0.948                    1.00211        11.71879
0.952                   1.000488        10.98588
0.956                  0.9986647        10.29452
0.96                   0.9969624         9.64621
0.964                  0.9956863        9.034635
0.968                  0.9950713        8.446545
0.972                  0.9952363        7.864041
0.976                  0.9961609        7.267821
0.98                   0.9976875         6.64075
0.984                  0.9995482        5.971053
0.988                   1.001413        5.254423
0.992                   1.002948        4.494757
0.996                   1.003875        3.703404
1                       1.004019        2.897209
1.004                   1.003343         2.09565
1.008                   1.001951        1.317573
1.012                    1.00008       0.5779456
1.016                  0.9980527      -0.1148669
1.02                   0.9962289      -0.7608225
1.024                  0.9949383        -1.36853
1.028                  0.9944212       -1.953969
1.032                  0.9947821       -2.537722
1.036                  0.9959681         -3.1412
1.04                    0.997776       -3.782651
1.044                  0.9998887       -4.473768
1.048                   1.001931       -5.217602
1.052                   1.003536       -6.008082
1.056                   1.004411        -6.83113
1.06                    1.004387        -7.66708
1.064                   1.003452       -8.493963
1.068                   1.001751       -9.291181
1.072                  0.9995724       -10.04307
1.076                  0.9972916       -10.74172
1.08                   0.9953129       -11.38889
1.084                  0.9939949       -11.99585
1.088                  0.9935848       -12.58191
1.092                  0.9941696       -13.17078
1.096                  0.9956576       -13.78645
1.1                    0.9977922       -14.44846
1.104                   1.000198       -15.16839
1.108                   1.002445       -15.94785
1.112                   1.004129       -16.77813
1.116                   1.004939       -17.64196
1.12                    1.004712        -18.5163
1.124                   1.003466       -19.37625
1.128                   1.001397       -20.19903
1.132                  0.9988535       -20.96813
1.136                  0.9962747       -21.67628
1.14                   0.9941198       -22.32723
1.144                  0.9927824       -22.93567
1.148                  0.9925185       -23.52483
1.152                  0.9933943       -24.12248
1.156                  0.9952706       -24.75565
1.16                    0.997825       -25.44556
1.164                   1.000609       -26.20372
1.168                   1.003129        -27.0299
1.172                   1.004928       -27.91231
1.176                   1.005673       -28.82971
1.18                    1.005208       -29.75494
1.184                   1.003585       -30.65933
1.188                   1.001061       -31.51741
1.192                   0.998059       -32.31137
1.196                  0.9950987       -33.03451
1.2                    0.9927082       -33.69308
1.204                  0.9913283       -34.30583
1.208                  0.9912284       -34.90105
1.212                  0.9924508       -35.51151
1.216                  0.9947986       -36.16831
1.22                   0.9978677       -36.89485
1.224                   1.001118       -37.70264
1.228                   1.003969       -38.58932
1.232                   1.005902       -39.53921
1.236                   1.006549       -40.52613
1.24                    1.005759       -41.51759
1.244                   1.003628       -42.48001
1.248                   1.000486        -43.3842
1.252                  0.9968552       -44.21041
1.256                  0.9933604       -44.95239
1.26                   0.9906252       -45.61939
1.264                  0.9891569       -46.23545
1.268                  0.9892489        -46.8356
1.272                  0.9909173       -47.45955
1.276                   0.993892       -48.14404
1.28                   0.9976613       -48.91579
1.284                   1.001562       -49.78667
1.288                   1.004896       -50.75174
1.292                   1.007052       -51.79043
1.296                   1.007613       -52.87001
1.3                     1.006423       -53.95085
1.304                   1.003628       -54.99254
1.308                  0.9996569       -55.96036
1.312                  0.9951616       -56.83136
1.316                  0.9909149       -57.59932
1.32                   0.9876784       -58.27717
1.324                  0.9860621       -58.89613
1.328                  0.9864021        -59.5008
1.332                  0.9886873         -60.141
1.336                  0.9925498       -60.86202
1.34                    0.997327       -61.69586
1.344                   1.002177       -62.65546
1.348                   1.006228       -63.73275
1.352                   1.008726       -64.90044
1.356                   1.009163       -66.11668
1.36                    1.007368       -67.33136
1.364                   1.003543       -68.49361
1.368                    0.99825       -69.55964
1.372                  0.9923323       -70.50054
1.376                  0.9867904       -71.30862
1.38                   0.9826105       -72.00129
1.384                  0.9805817       -72.62019
1.388                  0.9811333       -73.22494
1.392                  0.9842348       -73.88202
1.396                  0.9893832       -74.65155
1.4                    0.9956864        -75.5754
1.404                    1.00202        -76.6697
1.408                   1.007221       -77.92282
1.412                   1.010285       -79.29801
1.416                   1.010532       -80.73959
1.42                    1.007726       -82.18076
1.424                   1.002128       -83.55292
1.428                  0.9944908       -84.79555
1.432                  0.9859674       -85.86687
1.436                   0.977954       -86.75366
1.44                   0.9718592       -87.47837
1.444                  0.9688401       -88.10001
1.448                  0.9695539       -88.70623
1.452                  0.9739907        -89.3971
1.456                  0.9814396       -90.26437
1.46                   0.9905999       -91.37311
1.464                  0.9998063       -92.75021
1.468                   1.007311       -94.38198
1.472                   1.011561       -96.21852
1.476                   1.011444       -98.18207
1.48                    1.006463       -100.1768
1.484                  0.9968479       -102.0997
1.488                  0.9835854       -103.8533
1.492                  0.9683581       -105.3607
1.496                  0.9533639       -106.5844
1.5                    0.9410007       -107.5452
1.504                  0.9334264       -108.3347
1.508                  0.9320654       -109.1116
1.512                  0.9371928       -110.0763
1.516                  0.9477457       -111.4299
1.52                   0.9614292       -113.3336
1.524                  0.9750621       -115.8857
1.528                  0.9850286       -119.1195
1.532                  0.9877084       -123.0158
1.536                  0.9798129       -127.5205
1.54                   0.9586181       -132.5604
1.544                  0.9221043       -138.0535
1.548                  0.8690305       -143.9141
1.552                  0.7989587       -150.0526
1.556                  0.7122432       -156.3696
1.56                   0.6099942       -162.7382
1.564                  0.4940248       -168.9575
1.568                  0.3668142        -174.601
1.572                  0.2316437       -178.3161
1.576                 0.09490881       -171.0199
1.58                  0.06969554       -57.20432
1.584                  0.2039234       -41.40127
1.588                  0.3400612       -44.27811
1.592                  0.4690264       -49.70881
1.596                  0.5873037       -55.86744
1.6                    0.6922923       -62.23617
1.604                  0.7820609       -68.58754
1.608                  0.8553715       -74.78539
1.612                  0.9117302       -80.72686
1.616                  0.9514264       -86.32157
1.62                   0.9755485       -91.48373
1.624                  0.9859646       -96.13099
1.628                  0.9852601       -100.1885
1.632                  0.9766101       -103.5981
1.636                  0.9635698       -106.3329
1.64                   0.9497606       -108.4144
1.644                   0.938461        -109.927
1.648                  0.9321573       -111.0194
1.652                  0.9321712       -111.8853
1.656                  0.9385004       -112.7269
1.66                    0.949948       -113.7127
1.664                  0.9644956       -114.9485
1.668                  0.9797863       -116.4692
1.672                  0.9935763        -118.249
1.676                   1.004074       -120.2189
1.68                    1.010142       -122.2856
1.684                   1.011386       -124.3477
1.688                   1.008138       -126.3082
1.692                   1.001366       -128.0855
1.696                   0.992513        -129.623
1.7                    0.9832751       -130.8983
1.704                  0.9753328       -131.9281
1.708                  0.9700741       -132.7674
1.712                  0.9683569       -133.5011
1.716                  0.9703697       -134.2271
1.72                   0.9756289       -135.0358
1.724                   0.983112       -135.9937
1.728                  0.9914836       -137.1325
1.732                  0.9993545       -138.4484
1.736                   1.005514       -139.9074
1.74                     1.00911       -141.4547
1.744                   1.009744       -143.0244
1.748                   1.007511       -144.5502
1.752                   1.002954       -145.9738
1.756                  0.9969692       -147.2532
1.76                   0.9906551       -148.3694
1.764                  0.9851327       -149.3295
1.768                  0.9813542       -150.1668
1.772                  0.9799374       -150.9348
1.776                  0.9810635        -151.697
1.78                    0.984458       -152.5143
1.784                  0.9894634       -153.4336
1.788                  0.9951768       -154.4798
1.792                   1.000624       -155.6537
1.796                   1.004926       -156.9343
1.8                     1.007438       -158.2836
1.804                   1.007838       -159.6546
1.808                   1.006159       -160.9981
1.812                   1.002775       -162.2706
1.816                  0.9983257       -163.4401
1.82                   0.9936131       -164.4916
1.824                  0.9894627       -165.4297
1.828                  0.9865826        -166.278
1.832                  0.9854409        -167.075
1.836                  0.9861875        -167.867
1.84                   0.9886355       -168.6989
1.844                  0.9923086       -169.6061
1.848                   0.996538       -170.6082
1.852                    1.00059        -171.707
1.856                   1.003793       -172.8874
1.86                    1.005647       -174.1211
1.864                   1.005894       -175.3723
1.868                   1.004554       -176.6027
1.872                   1.001909       -177.7787
1.876                  0.9984516       -178.8754
1.88                   0.9947987       -179.8814
1.884                  0.9915874        179.1998
1.888                  0.9893633        178.3498
1.892                  0.9884866        177.5388
1.896                  0.9890721        176.7314
1.9                    0.9909748         175.893
1.904                  0.9938247        174.9963
1.908                  0.9971022         174.026
1.912                   1.000234        172.9804
1.916                   1.002696        171.8715
1.92                    1.004095        170.7214
1.924                   1.004233        169.5586
1.928                    1.00313         168.413
1.932                   1.001013        167.3114
1.936                  0.9982737        166.2729
1.94                   0.9954015        165.3061
1.944                  0.9928951        164.4074
1.948                  0.9911783         163.562
1.952                  0.9905254        162.7463
1.956                  0.9910168        161.9323
1.96                   0.9925292        161.0933
1.964                  0.9947658        160.2083
1.968                  0.9973138        159.2656
1.972                   0.999723        158.2646
1.976                   1.001584        157.2149
1.98                    1.002596        156.1345
1.984                   1.002614         155.046
1.988                   1.001665        153.9731
1.992                  0.9999412        152.9364
1.996                  0.9977589        151.9504
2                      0.9955054        151.0209
2.004                  0.9935683        150.1442
2.008                  0.9922694        149.3078
2.012                  0.9918089        148.4929
2.016                  0.9922324        147.6777
2.02                   0.9934296        146.8418
2.024                  0.9951584        145.9696
2.028                  0.9970932        145.0527
2.032                  0.9988868        144.0917
2.036                    1.00023        143.0948
2.04                    1.000906        142.0763
2.044                   1.000818         141.054
2.048                   1.000006        140.0459
2.052                  0.9986333        139.0673
2.056                  0.9969521        138.1281
2.06                    0.995259        137.2315
2.064                  0.9938412        136.3736
2.068                  0.9929261        135.5439
2.072                  0.9926438        134.7277
2.076                  0.9930056         133.909
2.08                   0.9939093        133.0729
2.084                  0.9951615         132.209
2.088                  0.9965163        131.3124
2.092                  0.9977231        130.3847
2.096                  0.9985699         129.433
2.1                    0.9989181        128.4684
2.104                  0.9987239        127.5038
2.108                  0.9980397        126.5517
2.112                  0.9970004        125.6221
2.116                  0.9957951        124.7205
2.12                   0.9946313        123.8476
2.124                  0.9936953         122.999
2.128                  0.9931213        122.1665
2.132                  0.9929687        121.3396
2.136                   0.993216        120.5078
2.14                   0.9937701        119.6623
2.144                  0.9944887        118.7977
2.148                  0.9952102        117.9127
2.152                   0.995785        117.0098
2.156                  0.9961027        116.0949
2.16                   0.9961097        115.1754
2.164                  0.9958142        114.2592
2.168                  0.9952801        113.3527
2.172                  0.9946092        112.4598
2.176                   0.993918        111.5814
2.18                   0.9933132        110.7156
2.184                    0.99287        109.8578
2.188                  0.9926195        109.0025
2.192                  0.9925462        108.1441
2.196                  0.9925954        107.2783
2.2                    0.9926892         106.403
2.204                  0.9927474        105.5185
2.208                  0.9927071         104.627
2.212                   0.992537        103.7323
2.216                  0.9922443        102.8383
2.22                   0.9918711        101.9479
2.224                  0.9914826        101.0623
2.228                  0.9911484        100.1807
2.232                  0.9909225        99.29978
2.236                  0.9908262        98.41502
2.24                   0.9908387        97.52148
2.244                  0.9908976        96.61517
2.248                  0.9909098         95.6941
2.252                  0.9907726        94.75913
2.256                  0.9903976          93.814
2.26                   0.9897348        92.86478
2.264                  0.9887904        91.91865
2.268                  0.9876337        90.98232
2.272                  0.9863901         90.0603
2.276                    0.98522        89.15344
2.28                   0.9842891        88.25805
2.284                  0.9837307        87.36593
2.288                   0.983612        86.46545
2.292                  0.9839102        85.54346
2.296                  0.9845055        84.58775
2.3                    0.9851929        83.58967
2.304                  0.9857143        82.54606
2.308                  0.9858034        81.46037
2.312                  0.9852369        80.34254
2.316                   0.983883        79.20747
2.32                   0.9817363        78.07277
2.324                  0.9789328        76.95529
2.328                  0.9757391        75.86767
2.332                  0.9725156        74.81503
2.336                  0.9696562         73.7925
2.34                   0.9675111        72.78455
2.344                   0.966312        71.76623
2.348                  0.9661079        70.70667
2.352                  0.9667335        69.57426