! TOUCHSTONE file generated by CST MICROWAVE STUDIO
! Date and time: Tue Jun 14 12:33:44 2022
! Project name: AppElm_antenne_patch_FR4.cst
! Parameters = {L=45; W=58.5; e=0.035; h=1.6; lambda=0.190476; ls=120; w0=2.54; w1=0.67755; ws=120; y0=18; y1=23.8}
! Header version: 2018
! Port assignment regex: !\s*Touchstone port\s*([0-9]+)\s*=\s*(CST MWS port|CST DS port)\s*([0-9]+|Zmin|Zmax)\s*\(\"(.*)\"\)(\s*mode\s*([0-9]+))?.*
! Touchstone port assignment:
! Touchstone port 1 = CST MWS port 1 ("")
# GHz S MA R 50
0                      0.9873698              -0
0.004                  0.9881184        -9.97745
0.008                  0.9902617       -19.86113
0.012                   0.993506       -29.56218
0.016                  0.9974134       -39.00069
0.02                    1.001466       -48.10829
0.024                   1.005142       -56.82938
0.028                   1.007984        -65.1209
0.032                    1.00966       -72.95165
0.036                   1.010001       -80.30129
0.04                    1.009021       -87.15964
0.044                   1.006908       -93.52645
0.048                   1.003996       -99.41136
0.052                   1.000718       -104.8342
0.056                  0.9975418       -109.8249
0.06                   0.9949077       -114.4225
0.064                  0.9931608       -118.6733
0.068                  0.9925049       -122.6276
0.072                   0.992975       -126.3361
0.076                  0.9944387       -129.8458
0.08                   0.9966227        -133.196
0.084                   0.999161        -136.416
0.088                   1.001655       -139.5242
0.092                   1.003735        -142.529
0.096                   1.005112       -145.4297
0.1                     1.005618       -148.2199
0.104                   1.005221       -150.8903
0.108                    1.00403       -153.4316
0.112                   1.002267       -155.8379
0.116                   1.000234       -158.1082
0.12                   0.9982626        -160.248
0.124                  0.9966626       -162.2698
0.128                  0.9956737       -164.1917
0.132                  0.9954287       -166.0356
0.136                  0.9959364        -167.824
0.14                   0.9970837       -169.5778
0.144                  0.9986598       -171.3129
0.148                   1.000392       -173.0391
0.152                   1.001997       -174.7589
0.156                   1.003218       -176.4686
0.16                    1.003874        -178.159
0.164                    1.00388       -179.8183
0.168                   1.003256        178.5665
0.172                   1.002125        177.0061
0.176                   1.000687         175.508
0.18                   0.9991879        174.0744
0.184                  0.9978756        172.7016
0.188                  0.9969617        171.3807
0.192                  0.9965865        170.0987
0.196                  0.9967971        168.8407
0.2                    0.9975413         167.592
0.204                    0.99868        166.3406
0.208                   1.000012        165.0786
0.212                   1.001309        163.8038
0.216                   1.002357        162.5192
0.22                    1.002986        161.2322
0.224                   1.003102        159.9535
0.228                   1.002695        158.6945
0.232                   1.001846        157.4661
0.236                   1.000705        156.2762
0.24                   0.9994685        155.1286
0.244                  0.9983461        154.0224
0.248                  0.9975249        152.9518
0.252                   0.997138        151.9073
0.256                   0.997243         150.877
0.26                   0.9978126        149.8488
0.264                  0.9987411        148.8126
0.268                  0.9998644        147.7613
0.272                   1.000988        146.6927
0.276                   1.001921        145.6089
0.28                    1.002509        144.5162
0.284                   1.002658        143.4241
0.288                   1.002347        142.3428
0.292                   1.001637        141.2825
0.296                   1.000652         140.251
0.3                    0.9995646        139.2524
0.304                    0.99856        138.2866
0.308                  0.9978096        137.3493
0.312                  0.9974393        136.4325
0.316                  0.9975084        135.5258
0.32                       0.998        134.6186
0.324                  0.9988249        133.7014
0.328                  0.9998372         132.768
0.332                   1.000862        131.8159
0.336                   1.001722        130.8469
0.34                    1.002274        129.8669
0.344                   1.002424        128.8842
0.348                   1.002151        127.9088
0.352                   1.001506        126.9501
0.356                   1.000601        126.0156
0.36                   0.9995939        125.1095
0.364                  0.9986597         124.232
0.368                  0.9979589        123.3793
0.372                  0.9976115         122.544
0.376                  0.9976762        121.7167
0.38                   0.9981389        120.8873
0.384                  0.9989171        120.0469
0.388                  0.9998739        119.1896
0.392                   1.000843        118.3131
0.396                   1.001656         117.419
0.4                     1.002175         116.513
0.404                    1.00231        115.6031
0.408                    1.00204        114.6989
0.412                   1.001414        113.8095
0.416                    1.00054        112.9422
0.42                   0.9995713        112.1011
0.424                  0.9986758        111.2864
0.428                   0.998009        110.4943
0.432                  0.9976872        109.7178
0.436                  0.9977656        108.9477
0.44                   0.9982295        108.1742
0.444                  0.9989969        107.3887
0.448                  0.9999329        106.5856
0.452                   1.000874        105.7626
0.456                   1.001656        104.9218
0.46                    1.002143        104.0685
0.464                   1.002251        103.2111
0.468                   1.001961        102.3588
0.472                   1.001322        101.5207
0.476                   1.000447        100.7039
0.48                   0.9994873        99.91232
0.484                  0.9986097        99.14603
0.488                  0.9979682        98.40112
0.492                  0.9976752        97.67038
0.496                  0.9977821        96.94456
0.5                    0.9982702        96.21397
0.504                  0.9990536        95.47026
0.508                  0.9999945        94.70784
0.512                   1.000928        93.92486
0.516                   1.001689        93.12352
0.52                    1.002146        92.30963
0.524                   1.002217        91.49155
0.528                   1.001889        90.67883
0.532                   1.001217        89.88049
0.536                   1.000317        89.10352
0.54                   0.9993467        88.35162
0.544                  0.9984752        87.62451
0.548                  0.9978557        86.91791
0.552                  0.9975982        86.22426
0.556                  0.9977489        85.53407
0.56                   0.9982819        84.83752
0.564                  0.9991039        84.12626
0.568                    1.00007        83.39495
0.572                   1.001012        82.64212
0.576                   1.001761         81.8704
0.58                    1.002187        81.08605
0.584                   1.002212         80.2979
0.588                   1.001831        79.51573
0.592                   1.001106        78.74873
0.596                   1.000165        78.00375
0.6                      0.99917        77.28423
0.604                  0.9982966        76.58943
0.608                  0.9976996         75.9145
0.612                  0.9974856        75.25135
0.616                  0.9976943        74.58999
0.62                   0.9982906        73.92037
0.624                  0.9991704        73.23415
0.628                   1.000179        72.52618
0.632                   1.001139        71.79549
0.636                    1.00188        71.04527
0.64                     1.00227         70.2825
0.644                   1.002238        69.51655
0.648                   1.001787        68.75767
0.652                   1.000993        68.01518
0.656                  0.9999924        67.29592
0.66                   0.9989603         66.6029
0.664                  0.9980789        65.93482
0.668                  0.9975051        65.28609
0.672                  0.9973426        64.64787
0.676                  0.9976229        64.00959
0.68                   0.9982987        63.36078
0.684                   0.999252        62.69307
0.688                   1.000315        62.00164
0.692                     1.0013        61.28604
0.696                   1.002032        60.55028
0.7                     1.002379        59.80211
0.704                   1.002276        59.05168
0.708                   1.001738         58.3098
0.712                   1.000855        57.58602
0.716                  0.9997784        56.88709
0.72                   0.9986976        56.21558
0.724                  0.9978032        55.56942
0.728                  0.9972553        54.94213
0.732                  0.9971539        54.32394
0.736                  0.9975202         53.7035
0.74                    0.998292        53.06992
0.744                  0.9993344        52.41476
0.748                   1.000463        51.73353
0.752                   1.001479        51.02649
0.756                   1.002199        50.29863
0.76                    1.002494        49.55864
0.764                   1.002305        48.81762
0.768                   1.001661        48.08701
0.772                    1.00067        47.37671
0.776                  0.9995036        46.69327
0.78                   0.9983644        46.03876
0.784                  0.9974552        45.41017
0.788                  0.9969394        44.79995
0.792                   0.996912        44.19718
0.796                  0.9973818        43.58963
0.8                    0.9982689        42.96586
0.804                  0.9994177         42.3174
0.808                   1.000626        41.64016
0.812                   1.001677         40.9353
0.816                   1.002384        40.20885
0.82                    1.002615        39.47077
0.824                   1.002325        38.73318
0.828                   1.001557        38.00833
0.832                    1.00044        37.30642
0.836                  0.9991678        36.63388
0.84                   0.9979623        35.99206
0.844                  0.9970383        35.37687
0.848                   0.996563        34.77945
0.852                  0.9966258        34.18759
0.856                  0.9972201        33.58796
0.86                   0.9982444        32.96853
0.864                  0.9995195        32.32076
0.868                    1.00082        31.64115
0.872                   1.001913        30.93183
0.876                   1.002603        30.20017
0.88                     1.00276        29.45754
0.884                    1.00235        28.71729
0.888                   1.001436        27.99258
0.892                   1.000172        27.29401
0.896                  0.9987764        26.62776
0.9                     0.997495        25.99437
0.904                  0.9965562        25.38848
0.908                  0.9961313        24.79966
0.912                  0.9963021        24.21414
0.916                  0.9970441        23.61737
0.92                   0.9982305        22.99661
0.924                  0.9996535         22.3433
0.928                   1.001061         21.6546
0.932                   1.002202        20.93383
0.936                   1.002869        20.18995
0.94                    1.002937        19.43593
0.944                   1.002383        18.68664
0.948                   1.001296        17.95625
0.952                  0.9998582         17.2558
0.956                  0.9983183         16.5912
0.96                   0.9969475        15.96205
0.964                  0.9959918        15.36143
0.968                  0.9956271        14.77705
0.972                  0.9959258        14.19335
0.976                  0.9968422        13.59429
0.98                   0.9982194        12.96634
0.984                  0.9998157        12.30093
0.988                   1.001348        11.59597
0.992                   1.002543        10.85625
0.996                   1.003181        10.09254
1                        1.00314        9.319784
1.004                   1.002414        8.554557
1.008                   1.001119        7.812277
1.012                  0.9994728         7.10452
1.016                  0.9977593        6.436888
1.02                   0.9962808        5.807808
1.024                  0.9953037        5.208559
1.028                  0.9950093        4.624641
1.032                  0.9954595        4.038301
1.036                  0.9965831        3.431761
1.04                   0.9981872        2.790504
1.044                  0.9999902        2.105933
1.048                   1.001672          1.3769
1.052                   1.002931       0.6098861
1.056                   1.003534      -0.1821412
1.06                    1.003362      -0.9819254
1.064                   1.002428         -1.7708
1.068                   1.000882       -2.531831
1.072                  0.9989813       -3.252768
1.076                  0.9970551       -3.928342
1.08                   0.9954431        -4.56148
1.084                  0.9944367       -5.163095
1.088                  0.9942248       -5.750363
1.092                   0.994857       -6.343733
1.096                  0.9962317       -6.963068
1.1                    0.9981126       -7.624202
1.104                    1.00017       -8.335743
1.108                   1.002037       -9.097802
1.112                   1.003378       -9.901825
1.116                   1.003942       -10.73224
1.12                    1.003613       -11.56891
1.124                   1.002426       -12.39064
1.128                   1.000569       -13.17851
1.132                  0.9983534       -13.91938
1.136                  0.9961595       -14.60829
1.14                   0.9943754       -15.24976
1.144                  0.9933253       -15.85737
1.148                  0.9932091       -16.45162
1.152                  0.9940632       -17.05631
1.156                  0.9957491       -17.69414
1.16                   0.9979774        -18.3825
1.164                   1.000357       -19.13022
1.168                   1.002465       -19.93615
1.172                   1.003918       -20.78929
1.176                   1.004443       -21.67079
1.18                    1.003923       -22.55698
1.184                    1.00242       -23.42329
1.188                   1.000169        -24.2483
1.192                  0.9975445       -25.01748
1.196                  0.9949972       -25.72609
1.2                    0.9929774       -26.38051
1.204                  0.9918542       -26.99764
1.208                  0.9918454       -27.60225
1.212                  0.9929729       -28.22258
1.216                  0.9950542       -28.88505
1.22                   0.9977323       -29.60932
1.224                   1.000537       -30.40473
1.228                    1.00297       -31.26867
1.232                   1.004585       -32.18712
1.236                   1.005073       -33.13708
1.24                    1.004314       -34.09023
1.244                   1.002397       -35.01754
1.248                    0.99962       -35.89396
1.252                  0.9964379       -36.70287
1.256                  0.9933943       -37.43942
1.26                   0.9910266       -38.11218
1.264                  0.9897698       -38.74231
1.268                  0.9898719       -39.36034
1.272                   0.991342       -40.00062
1.276                  0.9939427        -40.6949
1.28                   0.9972281       -41.46636
1.284                   1.000621       -42.32535
1.288                   1.003515       -43.26767
1.292                   1.005375       -44.27548
1.296                   1.005836       -45.32025
1.3                     1.004761       -46.36732
1.304                   1.002274       -47.38127
1.308                  0.9987473       -48.33163
1.312                  0.9947488       -49.19824
1.316                  0.9909535       -49.97544
1.32                   0.9880284       -50.67429
1.324                  0.9865117       -51.32172
1.328                  0.9867071       -51.95642
1.332                  0.9886176       -52.62192
1.336                  0.9919352       -53.35825
1.34                   0.9960911       -54.19436
1.344                   1.000352       -55.14287
1.348                    1.00395       -56.19797
1.352                   1.006209        -57.3368
1.356                   1.006664       -58.52317
1.36                    1.005142       -59.71312
1.364                   1.001797       -60.86147
1.368                   0.997103       -61.92886
1.372                  0.9917888       -62.88862
1.376                  0.9867313       -63.73256
1.38                   0.9828084       -64.47431
1.384                  0.9807383       -65.14898
1.388                  0.9809369       -65.80809
1.392                  0.9834217       -66.51037
1.396                  0.9877942       -67.31032
1.4                    0.9932995       -68.24778
1.404                  0.9989567       -69.34061
1.408                   1.003726       -70.58214
1.412                   1.006682       -71.94283
1.416                    1.00717       -73.37515
1.42                    1.004913       -74.82047
1.424                   1.000078       -76.21724
1.428                  0.9932691       -77.50984
1.432                  0.9854667       -78.65813
1.436                  0.9778904       -79.64616
1.44                    0.971807       -80.48895
1.444                  0.9683006       -81.23402
1.448                  0.9680504         -81.956
1.452                  0.9711673       -82.74363
1.456                  0.9771393       -83.68243
1.46                   0.9849014       -84.83769
1.464                   0.993013        -86.2429
1.468                  0.9998979       -87.89545
1.472                   1.004096       -89.75891
1.476                   1.004489       -91.76964
1.48                    1.000476       -93.84525
1.484                  0.9920874       -95.89447
1.488                  0.9800314        -97.8281
1.492                  0.9656575       -99.57228
1.496                  0.9508217       -101.0844
1.5                    0.9376381       -102.3699
1.504                    0.92812       -103.4951
1.508                  0.9237546       -104.5892
1.512                  0.9251113       -105.8275
1.516                  0.9316059       -107.4006
1.52                   0.9415066       -109.4776
1.524                  0.9521693         -112.18
1.528                   0.960413       -115.5732
1.532                  0.9629155       -119.6737
1.536                  0.9565529       -124.4644
1.54                   0.9386507       -129.9122
1.544                  0.9071506       -135.9829
1.548                  0.8607104       -142.6553
1.552                   0.798759       -149.9366
1.556                  0.7215258       -157.8854
1.56                   0.6300718        -166.657
1.564                  0.5263795       -176.6089
1.568                  0.4136847        171.4108
1.572                  0.2977905        155.1306
1.576                  0.1932366        127.4825
1.58                   0.1482264        74.96762
1.584                  0.2099097        26.92125
1.588                  0.3186857        2.276164
1.592                  0.4348692       -12.94815
1.596                  0.5465243       -24.48805
1.6                    0.6484912       -34.22279
1.604                  0.7377767       -42.87338
1.608                  0.8125412       -50.74766
1.612                  0.8718399       -57.97785
1.616                  0.9155541        -64.6101
1.62                   0.9443656         -70.644
1.624                  0.9597304       -76.05318
1.628                  0.9638218       -80.79997
1.632                  0.9594262       -84.84936
1.636                  0.9497673       -88.18507
1.64                   0.9382417       -90.82754
1.644                  0.9280611        -92.8499
1.648                   0.921837       -94.38426
1.652                  0.9212004       -95.61071
1.656                  0.9265764       -96.72756
1.66                   0.9372095       -97.91283
1.664                   0.951435       -99.29225
1.668                  0.9671003       -100.9252
1.672                  0.9820026       -102.8085
1.676                  0.9942472       -104.8916
1.68                    1.002488       -107.0937
1.684                   1.006054       -109.3201
1.688                   1.004975       -111.4752
1.692                  0.9999363       -113.4731
1.696                   0.992152       -115.2477
1.7                    0.9831875       -116.7619
1.704                   0.974723        -118.014
1.708                   0.968288        -119.041
1.712                  0.9650075       -119.9141
1.716                  0.9654118       -120.7261
1.72                    0.969362       -121.5731
1.724                  0.9761088       -122.5356
1.728                  0.9844696       -123.6645
1.732                  0.9930668       -124.9753
1.736                   1.000573       -126.4502
1.74                    1.005916       -128.0456
1.744                   1.008423       -129.7011
1.748                   1.007892       -131.3497
1.752                   1.004595       -132.9268
1.756                  0.9992247       -134.3791
1.76                    0.992779       -135.6716
1.764                  0.9864021       -136.7937
1.768                  0.9812004       -137.7619
1.772                  0.9780559       -138.6177
1.776                  0.9774744       -139.4204
1.78                   0.9795045       -140.2364
1.784                  0.9837424       -141.1256
1.788                  0.9894247       -142.1312
1.792                  0.9955804       -143.2727
1.796                   1.001207       -144.5449
1.8                     1.005434       -145.9213
1.804                   1.007654       -147.3597
1.808                   1.007601       -148.8099
1.812                   1.005379       -150.2211
1.816                   1.001432       -151.5487
1.82                   0.9964706       -152.7613
1.824                  0.9913589       -153.8457
1.828                  0.9869714        -154.809
1.832                  0.9840467       -155.6784
1.836                  0.9830613       -156.4968
1.84                   0.9841489       -157.3147
1.844                  0.9870841       -158.1807
1.848                   0.991334       -159.1324
1.852                  0.9961628       -160.1909
1.856                   1.000765       -161.3573
1.86                    1.004404        -162.615
1.864                   1.006523       -163.9329
1.868                   1.006828       -165.2715
1.872                   1.005324       -166.5885
1.876                   1.002304       -167.8457
1.88                   0.9983046       -169.0139
1.884                  0.9940118       -170.0783
1.888                  0.9901535       -171.0406
1.892                   0.987377       -171.9193
1.896                  0.9861375       -172.7469
1.9                    0.9866215       -173.5641
1.904                  0.9887174        -174.412
1.908                  0.9920426       -175.3248
1.912                  0.9960172        -176.324
1.916                  0.9999707       -177.4153
1.92                    1.003256       -178.5885
1.924                   1.005353       -179.8204
1.928                   1.005949        178.9215
1.932                   1.004978        177.6728
1.936                    1.00263        176.4679
1.94                   0.9993139        175.3342
1.944                  0.9955928        174.2879
1.948                  0.9920926        173.3312
1.952                  0.9893969        172.4518
1.956                  0.9879494        171.6246
1.96                   0.9879767         170.816
1.964                  0.9894518        169.9898
1.968                  0.9921032        169.1144
1.972                  0.9954667        168.1676
1.976                  0.9989707        167.1405
1.98                    1.002034         166.038
1.984                   1.004161        164.8777
1.988                    1.00502        163.6861
1.992                   1.004489        162.4943
1.996                   1.002673        161.3337
2                      0.9998817        160.2305
2.004                   0.996584        159.2023
2.008                  0.9933282        158.2549
2.012                  0.9906531        157.3808
2.016                  0.9889978        156.5607
2.02                    0.988627        155.7664
2.024                  0.9895855        154.9657
2.028                  0.9916934        154.1285
2.032                  0.9945808        153.2319
2.036                  0.9977545        152.2639
2.04                    1.000684        151.2251
2.044                   1.002888        150.1278
2.048                   1.004011        148.9938
2.052                   1.003879        147.8507
2.056                    1.00252        146.7273
2.06                     1.00016        145.6496
2.064                  0.9971851        144.6367
2.068                  0.9940825        143.6976
2.072                   0.991359        142.8295
2.076                  0.9894582        142.0182
2.08                   0.9886849        141.2399
2.084                  0.9891544        140.4656
2.088                  0.9907722        139.6663
2.092                  0.9932526        138.8177
2.096                  0.9961709        137.9047
2.1                     0.999035        136.9235
2.104                   1.001369        135.8815
2.108                   1.002788        134.7962
2.112                   1.003057        133.6917
2.116                   1.002128        132.5954
2.12                    1.000143        131.5333
2.124                  0.9974141        130.5267
2.128                  0.9943737        129.5881
2.132                  0.9915068        128.7196
2.136                  0.9892725         127.912
2.14                   0.9880266        127.1457
2.144                   0.987962        126.3946
2.148                  0.9890752        125.6299
2.152                  0.9911665        124.8253
2.156                  0.9938748        123.9619
2.16                   0.9967408        123.0307
2.164                   0.999281        122.0339
2.168                   1.001066        120.9843
2.172                    1.00179        119.9031
2.176                   1.001311        118.8163
2.18                   0.9996795        117.7509
2.184                   0.997128        116.7311
2.188                  0.9940374        115.7742
2.192                  0.9908794        114.8879
2.196                  0.9881438        114.0687
2.2                    0.9862571        113.3018
2.204                  0.9855125        112.5634
2.208                   0.986017        111.8243
2.212                   0.987672        111.0553
2.216                  0.9901876        110.2318
2.22                   0.9931307         109.338
2.224                  0.9959956        108.3694
2.228                  0.9982846        107.3333
2.232                   0.999586        106.2474
2.236                   0.999638        105.1367
2.24                    0.998369        104.0303
2.244                  0.9959121        102.9568
2.248                  0.9925887        101.9403
2.252                  0.9888652        100.9962
2.256                  0.9852843        100.1287
2.26                    0.982381        99.32907
2.264                  0.9805945        98.57635
2.268                  0.9801908         97.8402
2.272                   0.981213        97.08579
2.276                  0.9834665        96.27975
2.28                   0.9865468        95.39573
2.284                  0.9899019         94.4189
2.288                  0.9929188        93.34812
2.292                  0.9950189        92.19587
2.296                  0.9957466         90.9863
2.3                    0.9948408         89.7517
2.304                  0.9922793        88.52798
2.308                   0.988291         87.3498
2.312                  0.9833346        86.24514
2.316                  0.9780397        85.23058
2.32                   0.9731189        84.30729
2.324                  0.9692568        83.45907
2.328                  0.9669922        82.65332
2.332                  0.9666156        81.84505
2.336                   0.968103        80.98406
2.34                   0.9711019        80.02338
2.344                  0.9749749        78.92719
2.348                  0.9788917        77.67669
2.352                  0.9819527        76.27257