! TOUCHSTONE file generated by CST MICROWAVE STUDIO
! Date and time: Tue Jun 14 12:33:47 2022
! Project name: AppElm_antenne_patch_FR4.cst
! Parameters = {L=45; W=58.5; e=0.035; h=1.6; lambda=0.190476; ls=120; w0=2.54; w1=0.8046; ws=120; y0=18; y1=23.8}
! Header version: 2018
! Port assignment regex: !\s*Touchstone port\s*([0-9]+)\s*=\s*(CST MWS port|CST DS port)\s*([0-9]+|Zmin|Zmax)\s*\(\"(.*)\"\)(\s*mode\s*([0-9]+))?.*
! Touchstone port assignment:
! Touchstone port 1 = CST MWS port 1 ("")
# GHz S MA R 50
0                      0.9874486              -0
0.004                  0.9881927       -9.978334
0.008                  0.9903224        -19.8631
0.012                   0.993546       -29.56561
0.016                  0.9974277       -39.00608
0.02                    1.001453       -48.11627
0.024                   1.005101        -56.8406
0.028                   1.007919       -65.13603
0.032                   1.009577       -72.97137
0.036                   1.009907       -80.32628
0.04                    1.008924        -87.1906
0.044                   1.006816       -93.56401
0.048                   1.003917       -99.45628
0.052                   1.000656       -104.8872
0.056                  0.9975026       -109.8866
0.06                   0.9948917       -114.4936
0.064                  0.9931671       -118.7543
0.068                  0.9925301       -122.7191
0.072                   0.993014       -126.4386
0.076                  0.9944852       -129.9594
0.08                   0.9966699       -133.3206
0.084                  0.9992028       -136.5517
0.088                   1.001687       -139.6708
0.092                   1.003753        -142.686
0.096                   1.005115       -145.5969
0.1                     1.005606       -148.3969
0.104                   1.005198       -151.0767
0.108                   1.003999       -153.6274
0.112                   1.002233       -156.0428
0.116                   1.000202       -158.3221
0.12                   0.9982376       -160.4711
0.124                  0.9966481       -162.5022
0.128                  0.9956719       -164.4336
0.132                  0.9954401       -166.2872
0.136                  0.9959592       -168.0856
0.14                   0.9971148       -169.8495
0.144                  0.9986944       -171.5949
0.148                   1.000426       -173.3313
0.152                   1.002023       -175.0613
0.156                   1.003234       -176.7809
0.16                    1.003877       -178.4809
0.164                   1.003868        179.8506
0.168                    1.00323        178.2264
0.172                   1.002089        176.6574
0.176                   1.000645        175.1509
0.18                   0.9991454         173.709
0.184                  0.9978386        172.3279
0.188                  0.9969353        170.9986
0.192                  0.9965745         169.708
0.196                  0.9968009         168.441
0.2                    0.9975604         167.183
0.204                  0.9987113         165.922
0.208                   1.000051        164.6502
0.212                    1.00135        163.3656
0.216                   1.002392        162.0713
0.22                    1.003011        160.7748
0.224                   1.003112        159.4868
0.228                    1.00269         158.219
0.232                   1.001826        156.9821
0.236                   1.000673        155.7841
0.24                   0.9994303        154.6287
0.244                  0.9983083        153.5147
0.248                  0.9974947        152.4364
0.252                  0.9971215        151.3839
0.256                  0.9972439        150.3453
0.26                   0.9978322        149.3084
0.264                  0.9987782        148.2631
0.268                   0.999914        147.2024
0.272                   1.001044        146.1242
0.276                   1.001975        145.0307
0.28                    1.002554        143.9285
0.284                   1.002686        142.8271
0.288                   1.002356        141.7371
0.292                   1.001626        140.6685
0.296                   1.000623        139.6291
0.3                    0.9995227         138.623
0.304                  0.9985134        137.6501
0.308                  0.9977669        136.7056
0.312                  0.9974084        135.7814
0.316                  0.9974954         134.867
0.32                   0.9980082        133.9516
0.324                  0.9988535        133.0258
0.328                  0.9998825        132.0833
0.332                   1.000916        131.1217
0.336                   1.001777        130.1432
0.34                    1.002319        129.1537
0.344                   1.002452         128.162
0.348                   1.002156        127.1779
0.352                   1.001485        126.2111
0.356                   1.000557        125.2691
0.36                   0.9995331        124.3559
0.364                  0.9985904        123.4718
0.368                  0.9978917        122.6125
0.372                  0.9975568        121.7705
0.376                  0.9976421        120.9361
0.38                   0.9981304         120.099
0.384                  0.9989349        119.2504
0.388                  0.9999141        118.3843
0.392                   1.000898        117.4984
0.396                   1.001715        116.5949
0.4                     1.002227        115.6794
0.404                   1.002345        114.7604
0.408                   1.002051        113.8476
0.412                   1.001397        112.9502
0.416                   1.000497        112.0755
0.42                    0.999509        111.2277
0.424                  0.9986037        110.4066
0.428                  0.9979396        109.6084
0.432                  0.9976324        108.8255
0.436                  0.9977354        108.0486
0.44                   0.9982298        107.2676
0.444                  0.9990289         106.474
0.448                  0.9999923        105.6621
0.452                   1.000952        104.8297
0.456                   1.001739        103.9791
0.46                    1.002219        103.1162
0.464                   1.002307        102.2494
0.468                   1.001988        101.3883
0.472                   1.001316        100.5422
0.476                   1.000409        99.71815
0.48                   0.9994243        98.92005
0.484                   0.998533        98.14775
0.488                  0.9978917        97.39699
0.492                  0.9976129        96.66025
0.496                  0.9977458        95.92793
0.5                    0.9982673        95.19013
0.504                  0.9990854        94.43836
0.508                   1.000056        93.66707
0.512                   1.001009         92.8746
0.516                   1.001777        92.06343
0.52                    1.002225        91.23973
0.524                   1.002272        90.41222
0.528                    1.00191        89.59073
0.532                     1.0012        88.78448
0.536                   1.000264        88.00052
0.54                   0.9992654         87.2424
0.544                   0.998379        86.50963
0.548                  0.9977611        85.79758
0.552                  0.9975213        85.09829
0.556                  0.9977034        84.40183
0.56                   0.9982763        83.69816
0.564                  0.9991396        82.97882
0.568                   1.000142        82.23846
0.572                   1.001107        81.47586
0.576                   1.001865        80.69395
0.58                    1.002282        79.89945
0.584                   1.002281        79.10155
0.588                   1.001862         78.3104
0.592                   1.001095        77.53536
0.596                   1.000113         76.7834
0.6                    0.9990872        76.05777
0.604                  0.9981979        75.35745
0.608                   0.997603         74.6772
0.612                  0.9974094        74.00847
0.616                  0.9976535        73.34086
0.62                    0.998294        72.66397
0.624                  0.9992192        71.96939
0.628                   1.000266          71.252
0.632                    1.00125        70.51108
0.636                   1.001997        69.75026
0.64                    1.002373        68.97692
0.644                    1.00231        68.20092
0.648                   1.001814        67.43287
0.652                   1.000969        66.68235
0.656                  0.9999217        65.95622
0.66                   0.9988541        65.25736
0.664                  0.9979549        64.58406
0.668                  0.9973846         63.9303
0.672                  0.9972464        63.28672
0.676                  0.9975677        62.64224
0.68                   0.9982942        61.98613
0.684                  0.9992991        61.30985
0.688                   1.000405        60.60865
0.692                   1.001418        59.88241
0.696                   1.002156        59.13558
0.7                     1.002487        58.37643
0.704                   1.002349        57.61563
0.708                   1.001762        56.86438
0.712                   1.000825         56.1325
0.716                     0.9997        55.42673
0.72                   0.9985839        54.74945
0.724                  0.9976749        54.09816
0.728                  0.9971359        53.46588
0.732                  0.9970664        52.84221
0.736                  0.9974822        52.21533
0.74                    0.998313        51.57397
0.744                  0.9994138        50.90958
0.748                    1.00059        50.21781
0.752                   1.001634        49.49931
0.756                   1.002359        48.75953
0.76                    1.002632        48.00783
0.764                   1.002401        47.25582
0.768                   1.001699        46.51543
0.772                   1.000646        45.79675
0.776                  0.9994234        45.10639
0.78                   0.9982445         44.4461
0.784                  0.9973188        43.81245
0.788                  0.9968129        43.19722
0.792                  0.9968206        42.58889
0.796                  0.9973445        41.97463
0.8                    0.9982949        41.34268
0.804                  0.9995051        40.68443
0.808                   1.000761        39.99603
0.812                   1.001839        39.27902
0.816                   1.002544        38.54007
0.82                    1.002747        37.78978
0.824                   1.002405        37.04091
0.828                   1.001571        36.30614
0.832                   1.000386        35.59594
0.836                  0.9990535        34.91667
0.84                   0.9978079        34.26936
0.844                  0.9968713        33.64937
0.848                  0.9964138         33.0471
0.852                  0.9965218        32.44963
0.856                  0.9971817        31.84303
0.86                   0.9982806         31.2149
0.864                  0.9996263        30.55663
0.868                   1.000981        29.86499
0.872                   1.002103         29.1426
0.876                   1.002791        28.39755
0.88                    1.002915        27.64192
0.884                   1.002448        26.88976
0.888                   1.001462        26.15469
0.892                   1.000124        25.44756
0.896                  0.9986658        24.77443
0.9                    0.9973446        24.13547
0.904                  0.9963968        23.52465
0.908                   0.995996        22.93073
0.912                  0.9962201        22.33916
0.916                  0.9970358        21.73476
0.92                   0.9983032        21.10443
0.924                  0.9998001        20.43961
0.928                   1.001261        19.73777
0.932                   1.002425        19.00288
0.936                   1.003081        18.24465
0.94                    1.003104        17.47691
0.944                   1.002479        16.71523
0.948                   1.001306        15.97428
0.952                  0.9997834        15.26532
0.956                  0.9981734        14.59411
0.96                   0.9967602        13.95972
0.964                  0.9957977         13.3545
0.968                  0.9954634        12.76523
0.972                  0.9958249        12.17548
0.976                  0.9968255        11.56854
0.98                   0.9982933        10.93052
0.984                  0.9999711        10.25289
0.988                   1.001561        9.533997
0.992                    1.00278        8.779342
0.996                   1.003403        8.000583
1                       1.003311        7.213554
1.004                   1.002508        6.435608
1.008                   1.001122        5.682673
1.012                  0.9993885        4.966489
1.016                  0.9976065        4.292429
1.02                   0.9960921        3.658307
1.024                  0.9951192        3.054514
1.028                    0.99487        2.465533
1.032                  0.9953992        1.872656
1.036                  0.9966228        1.257406
1.04                   0.9983304       0.6049521
1.044                   1.000223     -0.09317263
1.048                   1.001964      -0.8375729
1.052                   1.003242        -1.62092
1.056                   1.003821       -2.429241
1.06                    1.003584       -3.244279
1.064                   1.002557       -4.046536
1.068                   1.000904       -4.818547
1.072                  0.9989016        -5.54793
1.076                  0.9968971        -6.22973
1.08                    0.995244       -6.867593
1.084                  0.9942419       -7.473446
1.088                  0.9940788       -8.065651
1.092                   0.994796       -8.665587
1.096                  0.9962766       -9.293965
1.1                    0.9982648       -9.966821
1.104                   1.000411        -10.6926
1.108                   1.002333       -11.47066
1.112                   1.003683        -12.2916
1.116                    1.00421        -13.1386
1.12                      1.0038       -13.99048
1.124                   1.002504       -14.82516
1.128                   1.000529       -15.62322
1.132                  0.9982039       -16.37145
1.136                  0.9959316       -17.06531
1.14                   0.9941147       -17.71021
1.144                  0.9930846       -18.32092
1.148                  0.9930391       -18.91926
1.152                  0.9940034       -19.53016
1.156                  0.9958208       -20.17709
1.16                   0.9981793       -20.87766
1.164                   1.000666       -21.64039
1.168                   1.002839       -22.46328
1.172                   1.004306       -23.33423
1.176                    1.00479       -24.23307
1.18                    1.004183       -25.13494
1.184                   1.002562       -26.01436
1.188                   1.000183       -26.84934
1.192                  0.9974454       -27.62536
1.196                  0.9948201       -28.33822
1.2                    0.9927734       -28.99533
1.204                  0.9916816       -29.61498
1.208                  0.9917584       -30.22341
1.212                  0.9930115       -30.85006
1.216                   0.995237       -31.52211
1.22                   0.9980517       -32.25939
1.224                   1.000962       -33.07072
1.228                   1.003448       -33.95247
1.232                   1.005056       -34.88928
1.236                   1.005476       -35.85667
1.24                    1.004596       -36.82502
1.244                   1.002528       -37.76425
1.248                  0.9995926       -38.64877
1.252                  0.9962729       -39.46206
1.256                  0.9931371       -40.19993
1.26                   0.9907401       -40.87225
1.264                  0.9895233       -41.50182
1.268                  0.9897289       -42.12087
1.272                  0.9913486       -42.76513
1.276                  0.9941187       -43.46719
1.28                   0.9975632       -44.25028
1.284                   1.001078       -45.12408
1.288                   1.004034       -46.08313
1.292                   1.005888       -47.10802
1.296                   1.006274       -48.16856
1.3                     1.005071       -49.22859
1.304                   1.002425       -50.25162
1.308                   0.998738       -51.20664
1.312                  0.9946103        -52.0737
1.316                  0.9907441       -52.84806
1.32                   0.9878249       -53.54241
1.324                  0.9863959       -54.18566
1.328                  0.9867511       -54.81852
1.332                  0.9888693       -55.48609
1.336                  0.9924097        -56.2292
1.34                    0.996766        -57.0767
1.344                   1.001173       -58.04011
1.348                   1.004837       -59.11206
1.352                   1.007075       -60.26763
1.356                   1.007424       -61.46865
1.36                    1.005729        -62.6694
1.364                   1.002175        -63.8234
1.368                  0.9972711       -64.89077
1.372                  0.9917868       -65.84508
1.376                  0.9866317       -66.67932
1.38                   0.9827051       -67.40914
1.384                   0.980731       -68.07213
1.388                  0.9811102       -68.72229
1.392                  0.9838294       -69.42017
1.396                  0.9884466       -70.22116
1.4                    0.9941611       -71.16461
1.404                  0.9999523       -72.26689
1.408                   1.004754       -73.51902
1.412                   1.007632       -74.88883
1.416                    1.00794       -76.32624
1.42                    1.005431        -77.7704
1.424                   1.000311       -79.15819
1.428                  0.9932393       -80.43327
1.432                  0.9852485       -81.55595
1.436                  0.9776055       -82.51206
1.44                   0.9716076       -83.31957
1.444                  0.9683445        -84.0299
1.448                  0.9684718       -84.72146
1.452                  0.9720508       -85.48581
1.456                  0.9785021       -86.40944
1.46                   0.9866902       -87.55661
1.464                  0.9951152       -88.95799
1.468                   1.002162       -90.60718
1.472                   1.006359       -92.46359
1.476                   1.006604       -94.45955
1.48                    1.002341       -96.50927
1.484                  0.9936654       -98.51882
1.488                  0.9813694       -100.3976
1.492                  0.9668927       -102.0722
1.496                  0.9521758       -103.5023
1.5                    0.9393929       -104.6988
1.504                  0.9305742       -105.7352
1.508                  0.9271647       -106.7485
1.512                  0.9296326       -107.9197
1.516                  0.9372502       -109.4405
1.52                   0.9481281       -111.4763
1.524                  0.9594811       -114.1407
1.528                  0.9680192       -117.4893
1.532                  0.9703504       -121.5284
1.536                  0.9633158       -126.2305
1.54                   0.9442315       -131.5515
1.544                  0.9110458       -137.4444
1.548                  0.8624285       -143.8709
1.552                  0.7978131       -150.8128
1.556                   0.717405       -158.2887
1.56                   0.6221755       -166.3858
1.564                  0.5138687       -175.3394
1.568                  0.3951166        174.2328
1.572                  0.2701056        160.4302
1.576                  0.1491903        134.9774
1.58                  0.09371138        62.22765
1.584                  0.1838769        7.486121
1.588                  0.3082057       -12.52035
1.592                  0.4319873        -24.9429
1.596                  0.5479861       -34.83501
1.6                    0.6526356       -43.51408
1.604                  0.7435911       -51.43737
1.608                  0.8193351       -58.78159
1.612                  0.8791146         -65.608
1.616                  0.9229445       -71.92148
1.62                   0.9516117       -77.69603
1.624                  0.9666604       -82.88889
1.628                  0.9703398       -87.45146
1.632                     0.9655        -91.3415
1.636                  0.9554139       -94.53802
1.64                   0.9435098       -97.05861
1.644                  0.9330109       -98.97463
1.648                  0.9265209       -100.4168
1.652                  0.9256463       -101.5637
1.656                  0.9307816       -102.6112
1.66                   0.9411431       -103.7348
1.664                  0.9550489        -105.057
1.668                  0.9703447       -106.6349
1.672                   0.984839       -108.4633
1.676                  0.9966602       -110.4906
1.68                    1.004492       -112.6356
1.684                   1.007694       -114.8037
1.688                   1.006327       -116.8999
1.692                   1.001095       -118.8397
1.696                   0.993223       -120.5586
1.7                      0.98427       -122.0214
1.704                  0.9758943       -123.2282
1.708                   0.969589       -124.2174
1.712                  0.9664347       -125.0604
1.716                  0.9669172       -125.8488
1.72                   0.9708635       -126.6767
1.724                  0.9775087       -127.6215
1.728                  0.9856747       -128.7312
1.732                  0.9940073       -130.0191
1.736                   1.001215       -131.4662
1.74                     1.00627       -133.0285
1.744                    1.00854       -134.6463
1.748                   1.007859       -136.2538
1.752                   1.004523       -137.7887
1.756                  0.9992302       -139.1999
1.76                   0.9929668       -140.4551
1.764                  0.9868466        -141.546
1.768                  0.9819309       -142.4904
1.772                   0.979049       -143.3301
1.776                  0.9786572       -144.1233
1.78                   0.9807661       -144.9338
1.784                   0.984956       -145.8183
1.788                  0.9904702       -146.8168
1.792                  0.9963661        -147.946
1.796                   1.001684       -149.1994
1.8                     1.005607       -150.5499
1.804                   1.007575       -151.9562
1.808                   1.007364       -153.3698
1.812                   1.005104       -154.7423
1.816                   1.001246       -156.0319
1.82                   0.9964853       -157.2103
1.824                   0.991652       -158.2664
1.828                    0.98757       -159.2091
1.832                  0.9849211       -160.0658
1.836                  0.9841279        -160.878
1.84                   0.9852844       -161.6935
1.844                   0.988148       -162.5575
1.848                  0.9921943       -163.5041
1.852                  0.9967194       -164.5514
1.856                   1.000968       -165.6989
1.86                     1.00426       -166.9296
1.864                   1.006095       -168.2134
1.868                   1.006226       -169.5125
1.872                   1.004686       -170.7876
1.876                   1.001776       -172.0038
1.88                   0.9980129       -173.1351
1.884                  0.9940451       -174.1693
1.888                  0.9905437         -175.11
1.892                  0.9880921       -175.9758
1.896                  0.9870856       -176.7978
1.9                    0.9876663       -177.6137
1.904                  0.9897029       -178.4609
1.908                  0.9928211       -179.3698
1.912                  0.9964766        179.6414
1.916                   1.000054         178.569
1.92                    1.002969        177.4238
1.924                   1.004768         176.228
1.928                   1.005187        175.0116
1.932                   1.004194        173.8072
1.936                   1.001985        172.6456
1.94                   0.9989487        171.5503
1.944                  0.9956037        170.5346
1.948                  0.9925119        169.5991
1.952                  0.9901858        168.7311
1.956                  0.9890021        167.9071
1.96                   0.9891381        167.0966
1.964                  0.9905445         166.268
1.968                  0.9929598        165.3938
1.972                  0.9959592        164.4556
1.976                  0.9990332        163.4467
1.98                    1.001674        162.3728
1.984                   1.003459        161.2501
1.988                   1.004113        160.1025
1.992                   1.003552        158.9577
1.996                   1.001887        157.8427
2                      0.9994061        156.7797
2.004                   0.996526         155.783
2.008                  0.9937237        154.8562
2.012                  0.9914579        153.9918
2.016                  0.9900928        153.1723
2.02                   0.9898376         152.373
2.024                  0.9907125        151.5665
2.028                  0.9925487        150.7277
2.032                  0.9950211        149.8378
2.036                  0.9977076        148.8874
2.04                    1.000161        147.8777
2.044                   1.001982        146.8199
2.048                   1.002881        145.7326
2.052                   1.002725        144.6392
2.056                    1.00155        143.5637
2.06                   0.9995517        142.5275
2.064                  0.9970604         141.546
2.068                  0.9944796        140.6259
2.072                  0.9922254        139.7643
2.076                   0.990656        138.9489
2.08                   0.9900144        138.1603
2.084                  0.9903873        137.3749
2.088                  0.9916933         136.569
2.092                  0.9936988        135.7235
2.096                    0.99606         134.826
2.1                    0.9983812        133.8735
2.104                    1.00028         132.872
2.108                   1.001449        131.8353
2.112                   1.001697        130.7827
2.116                   1.000985         129.736
2.12                     0.99942         128.716
2.124                  0.9972468        127.7396
2.128                  0.9948028        126.8171
2.132                  0.9924687        125.9502
2.136                  0.9906058        125.1323
2.14                   0.9894988        124.3486
2.144                  0.9893091        123.5791
2.148                  0.9900489        122.8016
2.152                  0.9915789        121.9954
2.156                  0.9936339        121.1449
2.16                   0.9958665        120.2422
2.164                  0.9979035        119.2874
2.168                  0.9994043        118.2894
2.172                   1.000113        117.2632
2.176                  0.9998979        116.2285
2.18                   0.9987678        115.2062
2.184                  0.9968743        114.2154
2.188                  0.9944874        113.2706
2.192                  0.9919561        112.3796
2.196                  0.9896559        111.5416
2.2                    0.9879298        110.7475
2.204                  0.9870329        109.9806
2.208                  0.9870904        109.2197
2.212                  0.9880752         108.442
2.216                  0.9898109        107.6274
2.22                    0.991999         106.761
2.224                  0.9942652        105.8361
2.228                   0.996218        104.8549
2.232                  0.9975078         103.828
2.236                  0.9978809        102.7727
2.24                    0.997218        101.7105
2.244                  0.9955546        100.6642
2.248                  0.9930797        99.65457
2.252                  0.9901117        98.69689
2.256                  0.9870551        97.79858
2.26                   0.9843408        96.95747
2.264                  0.9823585        96.16145
2.268                  0.9813932        95.38982
2.272                  0.9815728        94.61624
2.276                  0.9828417        93.81296
2.28                   0.9849628        92.95518
2.284                  0.9875503        92.02539
2.288                  0.9901268        91.01605
2.292                  0.9921951        89.93079
2.296                  0.9933147        88.78388
2.3                    0.9931694        87.59824
2.304                  0.9916195        86.40228
2.308                  0.9887309        85.22599
2.312                  0.9847758        84.09649
2.316                  0.9802039         83.0338
2.32                   0.9755848        82.04674
2.324                   0.971525         81.1302
2.328                  0.9685699        80.26429
2.332                  0.9671067        79.41609
2.336                   0.967285        78.54407
2.34                   0.9689736        77.60459
2.344                  0.9717633        76.55919
2.348                  0.9750189        75.38095
2.352                  0.9779688        74.05881