! TOUCHSTONE file generated by CST MICROWAVE STUDIO
! Date and time: Tue Jun 14 12:33:45 2022
! Project name: AppElm_antenne_patch_FR4.cst
! Parameters = {L=45; W=58.5; e=0.035; h=1.6; lambda=0.190476; ls=120; w0=2.54; w1=0.7199; ws=120; y0=18; y1=23.8}
! Header version: 2018
! Port assignment regex: !\s*Touchstone port\s*([0-9]+)\s*=\s*(CST MWS port|CST DS port)\s*([0-9]+|Zmin|Zmax)\s*\(\"(.*)\"\)(\s*mode\s*([0-9]+))?.*
! Touchstone port assignment:
! Touchstone port 1 = CST MWS port 1 ("")
# GHz S MA R 50
0                      0.9776685              -0
0.004                  0.9784077       -9.977768
0.008                   0.980524       -19.86184
0.012                  0.9837273       -29.56344
0.016                  0.9875851       -39.00268
0.02                   0.9915858       -48.11127
0.024                  0.9952134       -56.83359
0.028                  0.9980166       -65.12661
0.032                  0.9996673       -72.95911
0.036                  0.9999999       -80.31078
0.04                   0.9990282       -87.17143
0.044                  0.9969381        -93.5408
0.048                  0.9940603       -99.42858
0.052                  0.9908224       -104.8546
0.056                  0.9876875       -109.8488
0.06                   0.9850895       -114.4501
0.064                  0.9833696       -118.7049
0.068                  0.9827284       -122.6635
0.072                  0.9831995       -126.3765
0.076                   0.984651       -129.8907
0.08                   0.9868123       -133.2454
0.084                  0.9893214       -136.4699
0.088                  0.9917843       -139.5825
0.092                  0.9938355       -142.5914
0.096                  0.9951905       -145.4961
0.1                    0.9956828       -148.2901
0.104                  0.9952838       -150.9641
0.108                  0.9941003        -153.509
0.112                  0.9923534       -155.9187
0.116                  0.9903423       -158.1924
0.12                   0.9883952       -160.3357
0.124                  0.9868178       -162.3611
0.128                  0.9858467       -164.2867
0.132                  0.9856121       -166.1345
0.136                  0.9861216       -167.9269
0.14                   0.9872625       -169.6849
0.144                  0.9888247       -171.4242
0.148                  0.9905392       -173.1546
0.152                  0.9921232       -174.8786
0.156                  0.9933261       -176.5922
0.16                   0.9939679       -178.2864
0.164                  0.9939649       -179.9493
0.168                  0.9933398         178.432
0.172                  0.9922145        176.8684
0.176                  0.9907884        175.3672
0.18                   0.9893044        173.9304
0.184                  0.9880088        172.5545
0.188                  0.9871103        171.2304
0.192                  0.9867469         169.945
0.196                  0.9869638        168.6835
0.2                    0.9877085        167.4311
0.204                  0.9888414        166.1757
0.208                  0.9901626        164.9098
0.212                  0.9914465         163.631
0.216                  0.9924794        162.3425
0.22                   0.9930952        161.0518
0.224                  0.9932008        159.7694
0.228                  0.9927899        158.5072
0.232                  0.9919413        157.2756
0.236                  0.9908056        156.0827
0.24                   0.9895789        154.9323
0.244                  0.9884691        153.8233
0.248                  0.9876611        152.7498
0.252                  0.9872858        151.7023
0.256                  0.9873994        150.6688
0.26                    0.987973        149.6372
0.264                  0.9889007        148.5974
0.268                  0.9900181        147.5424
0.272                  0.9911324        146.4699
0.276                  0.9920542        145.3822
0.28                   0.9926302        144.2859
0.284                  0.9927683        143.1902
0.288                  0.9924507        142.1056
0.292                  0.9917376        141.0423
0.296                  0.9907548         140.008
0.3                    0.9896728        139.0067
0.304                  0.9886778        138.0385
0.308                  0.9879388        137.0986
0.312                  0.9875798         136.179
0.316                  0.9876585        135.2694
0.32                   0.9881566        134.3591
0.324                  0.9889835        133.4385
0.328                  0.9899939        132.5015
0.332                  0.9910118        131.5456
0.336                  0.9918633        130.5729
0.34                   0.9924034        129.5892
0.344                  0.9925429         128.603
0.348                  0.9922612        127.6244
0.352                  0.9916101        126.6628
0.356                  0.9907039        125.7256
0.36                   0.9897002         124.817
0.364                  0.9887728        123.9372
0.368                  0.9880819        123.0822
0.372                  0.9877458        122.2445
0.376                   0.987821        121.4146
0.38                    0.988292        120.5822
0.384                  0.9890748        119.7387
0.388                  0.9900321        118.8779
0.392                  0.9909968        117.9977
0.396                  0.9918023        117.0999
0.4                    0.9923101        116.1902
0.404                   0.992434        115.2769
0.408                   0.992154        114.3695
0.412                  0.9915199        113.4773
0.416                  0.9906426        112.6075
0.42                   0.9896743        111.7641
0.424                  0.9887839        110.9473
0.428                  0.9881261        110.1532
0.432                  0.9878153        109.3745
0.436                  0.9879052         108.602
0.44                   0.9883793        107.8257
0.444                  0.9891534        107.0372
0.448                   0.990092        106.2307
0.452                  0.9910308        105.4041
0.456                   0.991806        104.5596
0.46                    0.992283        103.7026
0.464                  0.9923789        102.8417
0.468                  0.9920768        101.9863
0.472                   0.991429        101.1454
0.476                   0.990548        100.3262
0.48                   0.9895869        99.53253
0.484                  0.9887132        98.76438
0.488                    0.98808        98.01764
0.492                  0.9877985        97.28496
0.496                  0.9879183        96.55692
0.5                    0.9884182        95.82377
0.504                  0.9892104        95.07706
0.508                  0.9901559        94.31129
0.512                  0.9910885        93.52468
0.516                  0.9918445        92.71958
0.52                    0.992291        91.90198
0.524                  0.9923494        91.08042
0.528                  0.9920076        90.26454
0.532                  0.9913241        89.46348
0.536                  0.9904168        88.68422
0.54                   0.9894439        87.93038
0.544                  0.9885753        87.20157
0.548                  0.9879641        86.49333
0.552                  0.9877189        85.79792
0.556                  0.9878836        85.10567
0.56                   0.9884302        84.40661
0.564                  0.9892632        83.69241
0.568                  0.9902363        82.95771
0.572                  0.9911777        82.20117
0.576                  0.9919221        81.42562
0.58                   0.9923372        80.63747
0.584                  0.9923486        79.84574
0.588                  0.9919521        79.06041
0.592                  0.9912145        78.29071
0.596                  0.9902634        77.54353
0.6                    0.9892647        76.82222
0.604                  0.9883936        76.12588
0.608                   0.987805        75.44948
0.612                  0.9876041        74.78471
0.616                  0.9878285        74.12139
0.62                   0.9884402         73.4493
0.624                  0.9893329        72.76008
0.628                  0.9903493        72.04866
0.632                  0.9913103        71.31412
0.636                  0.9920459        70.55993
0.64                   0.9924248        69.79323
0.644                   0.992378        69.02361
0.648                    0.99191        68.26151
0.652                  0.9911002        67.51636
0.656                  0.9900886        66.79497
0.66                   0.9890514        66.10029
0.664                  0.9881719        65.43082
0.668                   0.987607        64.78076
0.672                  0.9874589        64.14103
0.676                  0.9877566        63.50082
0.68                     0.98845        62.84953
0.684                  0.9894179        62.17876
0.688                  0.9904901        61.48371
0.692                  0.9914769         60.7641
0.696                   0.992203        60.02416
0.7                    0.9925374         59.2719
0.704                  0.9924179        58.51768
0.708                  0.9918608        57.77252
0.712                  0.9909601        57.04609
0.716                  0.9898711        56.34511
0.72                   0.9887844        55.67205
0.724                  0.9878921        55.02464
0.728                   0.987354        54.39615
0.732                  0.9872688        53.77652
0.736                  0.9876548        53.15416
0.74                   0.9884463        52.51804
0.744                  0.9895053        51.85965
0.748                  0.9906447         51.1746
0.752                  0.9916622        50.46333
0.756                  0.9923763        49.73102
0.76                   0.9926567        48.98674
0.764                  0.9924491        48.24178
0.768                  0.9917844        47.50782
0.772                  0.9907744        46.79485
0.776                  0.9895931        46.10944
0.78                   0.9884476         45.4535
0.784                  0.9875411        44.82378
0.788                  0.9870364        44.21245
0.792                  0.9870274        43.60829
0.796                  0.9875195        42.99878
0.8                    0.9884288        42.37234
0.804                   0.989596        41.72044
0.808                   0.990815        41.03911
0.812                  0.9918689        40.32969
0.816                  0.9925681        39.59853
0.82                    0.992784        38.85589
0.824                  0.9924724        38.11419
0.828                  0.9916808        37.38589
0.832                  0.9905428        36.68132
0.836                  0.9892547        36.00687
0.84                   0.9880424        35.36371
0.844                  0.9871218        34.74753
0.848                  0.9866598        34.14909
0.852                  0.9867433        33.55584
0.856                  0.9873627        32.95417
0.86                   0.9884118        32.33188
0.864                  0.9897071        31.68041
0.868                  0.9910195        30.99637
0.872                  0.9921148        30.28213
0.876                  0.9927952        29.54543
0.88                   0.9929345        28.79795
0.884                  0.9924997         28.0534
0.888                  0.9915595        27.32515
0.892                  0.9902719        26.62391
0.896                  0.9888597        25.95583
0.9                    0.9875714        25.32125
0.904                  0.9866371        24.71449
0.908                  0.9862276        24.12473
0.912                  0.9864222        23.53782
0.916                  0.9871923        22.93891
0.92                   0.9884062        22.31507
0.924                  0.9898513        21.65774
0.928                  0.9912717        20.96422
0.932                  0.9924136        20.23815
0.936                  0.9930697        19.48884
0.94                   0.9931163        18.72969
0.944                  0.9925351        17.97589
0.948                  0.9914184        17.24188
0.952                  0.9899546        16.53879
0.956                  0.9883965        15.87249
0.96                    0.987019         15.2423
0.964                  0.9860696        14.64097
0.968                   0.985723        14.05576
0.972                  0.9860489        13.47067
0.976                  0.9869971        12.86934
0.98                   0.9884045        12.23806
0.984                   0.990025        11.56826
0.988                  0.9915709        10.85807
0.992                  0.9927655        10.11261
0.996                  0.9933903        9.343086
1                      0.9933249         8.56488
1.004                  0.9925679        7.794957
1.008                  0.9912401        7.048999
1.012                  0.9895651        6.338679
1.016                  0.9878324        5.669502
1.02                   0.9863477        5.039612
1.024                   0.985379        4.439858
1.028                  0.9851063        3.855243
1.032                  0.9855881        3.267536
1.036                  0.9867476          2.6586
1.04                   0.9883855         2.01374
1.044                  0.9902148          1.3244
1.048                  0.9919105       0.5896774
1.052                  0.9931677      -0.1835426
1.056                  0.9937547      -0.9818036
1.06                   0.9935544       -1.787351
1.064                  0.9925855       -2.581097
1.068                  0.9910024       -3.345824
1.072                   0.989071       -4.069194
1.076                  0.9871247       -4.746069
1.08                   0.9855075       -5.379716
1.084                  0.9845122       -5.981546
1.088                  0.9843264        -6.56932
1.092                  0.9849949        -7.16393
1.096                  0.9864103       -7.785832
1.1                     0.988329       -8.450819
1.104                  0.9904144       -9.167552
1.108                  0.9922958       -9.935729
1.112                  0.9936334       -10.74647
1.116                  0.9941785       -11.58353
1.12                   0.9938163       -12.42626
1.124                  0.9925894       -13.25296
1.128                  0.9906921       -14.04448
1.132                  0.9884419       -14.78755
1.136                  0.9862268       -15.47738
1.14                   0.9844387       -16.11891
1.144                   0.983403       -16.72629
1.148                  0.9833178       -17.32069
1.152                   0.984214       -17.92649
1.156                  0.9859462       -18.56684
1.16                   0.9882168       -19.25926
1.164                  0.9906274       -20.01252
1.168                  0.9927489       -20.82506
1.172                  0.9941972       -21.68535
1.176                  0.9946988       -22.57387
1.18                   0.9941404       -23.46636
1.184                   0.992591       -24.33769
1.188                  0.9902942       -25.16614
1.192                  0.9876321       -25.93709
1.196                  0.9850624       -26.64601
1.2                      0.98304       -27.29978
1.204                  0.9819355       -27.91597
1.208                  0.9819638       -28.52014
1.212                  0.9831406       -29.14117
1.216                  0.9852751       -29.80598
1.22                   0.9880012        -30.5344
1.224                  0.9908403        -31.3356
1.228                  0.9932866       -32.20653
1.232                  0.9948941        -33.1325
1.236                  0.9953541       -34.08978
1.24                   0.9945498       -35.04932
1.244                  0.9925803       -35.98149
1.248                   0.989751       -36.86088
1.252                  0.9865272       -37.67079
1.256                  0.9834599       -38.40666
1.26                   0.9810923       -39.07761
1.264                  0.9798598       -39.70564
1.268                  0.9800075       -40.32216
1.272                  0.9815368       -40.96235
1.276                  0.9842002       -41.65848
1.28                   0.9875411       -42.43391
1.284                  0.9909731       -43.29874
1.288                  0.9938818       -44.24824
1.292                   0.995732       -45.26378
1.296                  0.9961583       -46.31597
1.3                    0.9950305       -47.36927
1.304                  0.9924817       -48.38759
1.308                  0.9888953       -49.34001
1.312                  0.9848502       -50.20629
1.316                  0.9810305       -50.98111
1.32                   0.9781094       -51.67621
1.324                  0.9766262       -52.31953
1.328                  0.9768797       -52.95087
1.332                  0.9788641       -53.61472
1.336                  0.9822593       -54.35179
1.34                   0.9864826       -55.19117
1.344                  0.9907901       -56.14518
1.348                  0.9944053       -57.20732
1.352                   0.996651       -58.35376
1.356                  0.9970643       -59.54724
1.36                   0.9954789       -60.74274
1.364                  0.9920608       -61.89426
1.368                  0.9872963       -62.96189
1.372                  0.9819294       -63.91883
1.376                  0.9768477       -64.75725
1.38                   0.9729366       -65.49166
1.384                  0.9709156       -66.15849
1.388                  0.9711945       -66.81066
1.392                  0.9737795       -67.50815
1.396                  0.9782552       -68.30635
1.4                    0.9838501       -69.24525
1.404                  0.9895688       -70.34229
1.408                  0.9943622       -71.58984
1.412                  0.9973027       -72.95711
1.416                  0.9977382       -74.39517
1.42                   0.9954028       -75.84404
1.424                  0.9904768       -77.24106
1.428                  0.9835832       -78.52981
1.432                  0.9757203       -79.66985
1.436                  0.9681241       -80.64562
1.44                   0.9620719       -81.47328
1.444                  0.9586509       -82.20213
1.448                  0.9585323       -82.90886
1.452                    0.96181       -83.68418
1.456                  0.9679485       -84.61477
1.46                   0.9758579       -85.76622
1.464                  0.9840763       -87.17125
1.468                  0.9910139       -88.82585
1.472                  0.9952063       -90.69171
1.476                  0.9955407       -92.70308
1.48                   0.9914301       -94.77559
1.484                  0.9829272       -96.81603
1.488                  0.9707678       -98.73363
1.492                  0.9563319       -100.4536
1.496                  0.9415067       -101.9331
1.5                    0.9284324        -103.179
1.504                  0.9191363       -104.2605
1.508                  0.9151018       -105.3104
1.512                  0.9168728       -106.5085
1.516                  0.9238234       -108.0478
1.52                    0.934172       -110.0982
1.524                  0.9452292       -112.7798
1.528                  0.9537798       -116.1549
1.532                  0.9564823        -120.236
1.536                  0.9502072       -125.0019
1.54                    0.932283       -130.4151
1.544                  0.9006587       -136.4365
1.548                  0.8539991        -143.039
1.552                  0.7917341       -150.2213
1.556                    0.71408       -158.0295
1.56                   0.6220564       -166.5982
1.564                  0.5175478       -176.2502
1.568                  0.4035608        172.2245
1.572                  0.2853437        156.6064
1.576                  0.1763179        129.1822
1.58                   0.1289391        71.29492
1.584                  0.1985834        20.75421
1.588                  0.3120728       -2.690851
1.592                  0.4302069       -17.05293
1.596                  0.5426339       -28.06846
1.6                    0.6447985       -37.46627
1.604                  0.7339653       -45.88683
1.608                   0.808425       -53.59593
1.612                  0.8673087        -60.7024
1.616                   0.910547       -67.23846
1.62                   0.9388569       -73.19464
1.624                   0.953721       -78.53843
1.628                   0.957333       -83.22769
1.632                  0.9524956       -87.22398
1.636                  0.9424453       -90.50857
1.64                   0.9305886       -93.10041
1.644                   0.920142        -95.0722
1.648                  0.9137168       -96.55695
1.652                  0.9129355       -97.73644
1.656                  0.9182074       -98.81096
1.66                   0.9287579       -99.95996
1.664                  0.9429049       -101.3096
1.668                  0.9584828       -102.9187
1.672                  0.9732841       -104.7831
1.676                  0.9854156       -106.8505
1.68                   0.9935385       -109.0389
1.684                  0.9969901       -111.2523
1.688                  0.9958114        -113.394
1.692                  0.9906937       -115.3776
1.696                  0.9828574       -117.1367
1.7                    0.9738689       -118.6339
1.704                  0.9654052       -119.8684
1.708                  0.9589892       -120.8776
1.712                  0.9557349       -121.7337
1.716                  0.9561612       -122.5304
1.72                   0.9601177       -123.3643
1.724                  0.9668481        -124.316
1.728                  0.9751669        -125.436
1.732                     0.9837       -126.7394
1.736                  0.9911277       -128.2077
1.74                    0.996389       -129.7964
1.744                  0.9988216       -131.4446
1.748                  0.9982338        -133.085
1.752                  0.9949062       -134.6529
1.756                  0.9895341       -136.0949
1.76                   0.9831132       -137.3764
1.764                  0.9767825       -138.4873
1.768                   0.971638       -139.4444
1.772                  0.9685492         -140.29
1.776                  0.9680097       -141.0838
1.78                   0.9700573       -141.8922
1.784                  0.9742834       -142.7751
1.788                   0.979924       -143.7751
1.792                  0.9860141       -144.9113
1.796                  0.9915609        -146.178
1.8                    0.9957073       -147.5481
1.804                  0.9978585       -148.9794
1.808                  0.9977601       -150.4214
1.812                  0.9955219       -151.8234
1.816                  0.9915905       -153.1411
1.82                   0.9866744       -154.3438
1.824                  0.9816289       -155.4183
1.828                  0.9773161       -156.3725
1.832                  0.9744609       -157.2339
1.836                  0.9735257       -158.0456
1.84                   0.9746339       -158.8578
1.844                   0.977555       -159.7189
1.848                  0.9817574        -160.666
1.852                  0.9865122       -161.7193
1.856                  0.9910273       -162.8799
1.86                   0.9945789       -164.1306
1.864                  0.9966257       -165.4403
1.868                  0.9968859       -166.7694
1.872                  0.9953713       -168.0763
1.876                  0.9923785       -169.3229
1.88                   0.9884376       -170.4807
1.884                  0.9842257       -171.5355
1.888                  0.9804568       -172.4893
1.892                  0.9777613       -173.3609
1.896                  0.9765795       -174.1829
1.9                    0.9770865       -174.9954
1.904                  0.9791653       -175.8391
1.908                  0.9824352       -176.7477
1.912                  0.9863256       -177.7418
1.916                    0.99018       -178.8267
1.92                   0.9933679       -179.9919
1.924                  0.9953863        178.7857
1.928                  0.9959349        177.5382
1.932                  0.9949572         176.301
1.936                  0.9926438        175.1077
1.94                   0.9893987        173.9849
1.944                  0.9857735        172.9483
1.948                  0.9823772        171.9998
1.952                  0.9797752        171.1268
1.956                  0.9783933        170.3043
1.96                   0.9784459        169.4993
1.964                  0.9799005        168.6764
1.968                  0.9824881        167.8048
1.972                   0.985755         166.863
1.976                   0.989146        165.8426
1.98                   0.9920992        164.7489
1.984                  0.9941385        163.5991
1.988                  0.9949464        162.4192
1.992                  0.9944105          161.24
1.996                  0.9926368        160.0917
2                      0.9899302        158.9999
2.004                  0.9867444        157.9815
2.008                  0.9836087        157.0417
2.012                   0.981041        156.1731
2.016                  0.9794607        155.3565
2.02                   0.9791179        154.5645
2.024                  0.9800516        153.7659
2.028                  0.9820851        152.9316
2.032                  0.9848609        152.0396
2.036                  0.9879049        151.0784
2.04                   0.9907085        150.0487
2.044                  0.9928126        148.9627
2.048                  0.9938801        147.8415
2.052                  0.9937454        146.7118
2.056                  0.9924387        145.6014
2.06                   0.9901779        144.5353
2.064                  0.9873338        143.5319
2.068                  0.9843706        142.5995
2.072                  0.9817705        141.7356
2.076                  0.9799549        140.9261
2.08                   0.9792125        140.1484
2.084                  0.9796514        139.3746
2.088                  0.9811812        138.5768
2.092                  0.9835313        137.7319
2.096                  0.9862987        136.8254
2.1                    0.9890179        135.8536
2.104                  0.9912378        134.8235
2.108                  0.9925937        133.7517
2.112                  0.9928627        132.6614
2.116                  0.9919974        131.5786
2.12                   0.9901311        130.5282
2.124                  0.9875556        129.5304
2.128                   0.984678        128.5974
2.132                  0.9819546        127.7312
2.136                  0.9798182        126.9233
2.14                   0.9786063        126.1553
2.144                  0.9785036        125.4024
2.148                  0.9795115        124.6373
2.152                  0.9814477        123.8352
2.156                  0.9839783        122.9777
2.16                   0.9866736        122.0559
2.164                  0.9890806        121.0716
2.168                  0.9907941        120.0365
2.172                  0.9915198        118.9702
2.176                  0.9911191        117.8974
2.18                   0.9896302        116.8436
2.184                  0.9872625        115.8318
2.188                  0.9843658        114.8788
2.192                  0.9813784        113.9925
2.196                  0.9787588        113.1701
2.2                    0.9769111        112.3982
2.204                  0.9761189        111.6549
2.208                  0.9764954         110.913
2.212                  0.9779622        110.1446
2.216                  0.9802616         109.326
2.22                   0.9829981        108.4417
2.224                  0.9857018        107.4863
2.228                  0.9879042        106.4658
2.232                  0.9892098         105.396
2.236                  0.9893585        104.3001
2.24                    0.988265        103.2052
2.244                  0.9860344        102.1388
2.248                  0.9829509         101.124
2.252                  0.9794396        100.1767
2.256                  0.9760047        99.30197
2.26                   0.9731525        98.49284
2.264                  0.9713091         97.7307
2.268                  0.9707468        96.98766
2.272                  0.9715329        96.23093
2.276                  0.9735126        95.42833
2.28                   0.9763285        94.55365
2.284                  0.9794748        93.59111
2.288                  0.9823765        92.53771
2.292                  0.9844774        91.40354
2.296                  0.9853255         90.2102
2.3                     0.984644        88.98765
2.304                  0.9823771        87.77004
2.308                  0.9787073        86.59099
2.312                    0.97404        85.47857
2.316                  0.9689534        84.45052
2.32                   0.9641192        83.51027
2.324                     0.9602        82.64474
2.328                  0.9577367        81.82469
2.332                  0.9570483        81.00828
2.336                  0.9581612        80.14725
2.34                   0.9607869        79.19512
2.344                  0.9643535        78.11497
2.348                  0.9680875        76.88545
2.352                  0.9711267        75.50392