! TOUCHSTONE file generated by CST MICROWAVE STUDIO
! Date and time: Tue Jun  7 20:51:55 2022
! Project name: AppElm_antenne_patch_FR4.cst
! Parameters = {L=45; W=58.5; e=0.035; h=1.6; lambda=0.190476; ls=120; w0=1.6; w1=0.533333; ws=120; y0=20; y1=22.62}
! Header version: 2018
! Port assignment regex: !\s*Touchstone port\s*([0-9]+)\s*=\s*(CST MWS port|CST DS port)\s*([0-9]+|Zmin|Zmax)\s*\(\"(.*)\"\)(\s*mode\s*([0-9]+))?.*
! Touchstone port assignment:
! Touchstone port 1 = CST MWS port 1 ("")
# GHz S MA R 50
0                      0.9889708              -0
0.004                   0.989624       -9.910663
0.008                  0.9914947       -19.73406
0.012                  0.9943282       -29.38719
0.016                  0.9977437       -38.79493
0.02                    1.001291       -47.89242
0.024                   1.004512       -56.62624
0.028                   1.007007       -64.95456
0.032                   1.008482       -72.84661
0.036                   1.008788         -80.282
0.04                    1.007935       -87.25013
0.044                   1.006083       -93.74993
0.048                   1.003525       -99.78981
0.052                   1.000638       -105.3877
0.056                  0.9978343       -110.5709
0.06                   0.9954986        -115.375
0.064                  0.9939373        -119.842
0.068                  0.9933325       -124.0179
0.072                  0.9937204       -127.9489
0.076                  0.9949897       -131.6779
0.08                    0.996905       -135.2416
0.084                  0.9991477       -138.6677
0.088                   1.001368       -141.9744
0.092                   1.003237       -145.1708
0.096                   1.004496        -148.258
0.1                      1.00499       -151.2318
0.104                   1.004683       -154.0849
0.108                   1.003665       -156.8104
0.112                   1.002125       -159.4032
0.116                   1.000326       -161.8631
0.12                   0.9985622       -164.1955
0.124                  0.9971084       -166.4114
0.128                  0.9961822       -168.5272
0.132                  0.9959092       -170.5626
0.136                  0.9963064        -172.538
0.14                   0.9972828       -174.4725
0.144                  0.9986588       -176.3812
0.148                   1.000198       -178.2734
0.152                   1.001646        179.8475
0.156                   1.002776         177.984
0.16                    1.003417        176.1435
0.164                   1.003485         174.336
0.168                   1.002988        172.5727
0.172                   1.002025        170.8635
0.176                   1.000768        169.2148
0.18                   0.9994298         167.629
0.184                  0.9982335        166.1034
0.188                  0.9973709        164.6303
0.192                  0.9969749        163.1986
0.196                   0.997098        161.7949
0.2                    0.9977045        160.4059
0.204                  0.9986804        159.0205
0.208                   0.999853        157.6312
0.212                   1.001022        156.2352
0.216                   1.001993        154.8343
0.22                    1.002609        153.4346
0.224                   1.002778        152.0452
0.228                   1.002479        150.6762
0.232                   1.001774        149.3373
0.236                   1.000787        148.0358
0.24                   0.9996895        146.7758
0.244                  0.9986676        145.5568
0.248                   0.997891        144.3742
0.252                  0.9974864        143.2201
0.256                  0.9975151        142.0839
0.26                   0.9979643         140.955
0.264                  0.9987494        139.8237
0.268                  0.9997315        138.6836
0.272                   1.000741        137.5316
0.276                   1.001605        136.3692
0.28                     1.00218        135.2014
0.284                   1.002374        134.0361
0.288                   1.002158        132.8825
0.292                   1.001575        131.7497
0.296                   1.000728        130.6449
0.3                    0.9997647        129.5723
0.304                  0.9988496        128.5325
0.308                  0.9981391         127.522
0.312                   0.997752        126.5342
0.316                  0.9977514        125.5601
0.32                   0.9981327        124.5901
0.324                  0.9988261        123.6156
0.328                  0.9997085        122.6303
0.332                   1.000627        121.6317
0.336                   1.001422        120.6206
0.34                    1.001961        119.6017
0.344                   1.002151        118.5822
0.348                   1.001965        117.5707
0.352                   1.001437        116.5758
0.356                    1.00066        115.6044
0.36                   0.9997705        114.6607
0.364                  0.9989224        113.7456
0.368                  0.9982625         112.856
0.372                   0.997904        111.9857
0.376                  0.9979078        111.1266
0.38                    0.998271        110.2695
0.384                  0.9989286        109.4065
0.388                  0.9997644        108.5317
0.392                   1.000632        107.6424
0.396                   1.001382        106.7398
0.4                     1.001884        105.8282
0.404                   1.002052        104.9147
0.408                   1.001859        104.0077
0.412                   1.001339        103.1153
0.416                   1.000584        102.2444
0.42                   0.9997248         101.399
0.424                   0.998912        100.5797
0.428                  0.9982872        99.78362
0.432                  0.9979595        99.00469
0.436                  0.9979853        98.23485
0.44                   0.9983598        97.46533
0.444                  0.9990159        96.68836
0.448                  0.9998384        95.89832
0.452                   1.000683        95.09296
0.456                   1.001401         94.2735
0.46                    1.001867        93.44454
0.464                   1.002001        92.61314
0.468                   1.001779        91.78764
0.472                    1.00124        90.97622
0.476                   1.000478        90.18539
0.48                    0.999626        89.41899
0.484                  0.9988342        88.67734
0.488                   0.998242        87.95725
0.492                  0.9979539        87.25248
0.496                  0.9980213        86.55482
0.5                    0.9984325        85.85556
0.504                  0.9991148        85.14706
0.508                  0.9999482        84.42404
0.512                   1.000785        83.68458
0.516                   1.001478        82.93038
0.52                    1.001905        82.16639
0.524                   1.001989        81.40005
0.528                   1.001715        80.63982
0.532                   1.001129        79.89391
0.536                   1.000333        79.16866
0.54                   0.9994664        78.46757
0.544                  0.9986817        77.79052
0.548                  0.9981179         77.1338
0.552                  0.9978756         76.4907
0.556                  0.9979983        75.85267
0.56                   0.9984656         75.2109
0.564                  0.9991947        74.55778
0.568                   1.000057        73.88842
0.572                   1.000899        73.20136
0.576                   1.001572        72.49891
0.58                    1.001955        71.78664
0.584                   1.001979        71.07247
0.588                   1.001637        70.36522
0.592                   1.000989        69.67313
0.596                   1.000147        69.00236
0.6                     0.999259        68.35598
0.604                  0.9984828        67.73322
0.608                  0.9979573        67.12964
0.612                  0.9977778        66.53785
0.616                  0.9979785        65.94883
0.62                   0.9985254        65.35348
0.624                  0.9993226        64.74436
0.628                   1.000229        64.11693
0.632                   1.001084        63.47043
0.636                   1.001734        62.80796
0.64                    1.002062        62.13592
0.644                   1.002008         61.4629
0.648                   1.001578        60.79817
0.652                   1.000845        60.15008
0.656                  0.9999373        59.52459
0.66                    0.999015         58.9241
0.664                  0.9982421        58.34708
0.668                   0.997758        57.78815
0.672                  0.9976514        57.23907
0.676                  0.9979437        56.69014
0.68                   0.9985852        56.13201
0.684                  0.9994628        55.55731
0.688                   1.000421        54.96205
0.692                   1.001288        54.34632
0.696                   1.001907         53.7142
0.7                     1.002167        53.07308
0.704                   1.002018        52.43239
0.708                   1.001481        51.80188
0.712                    1.00065        51.19002
0.716                  0.9996686        50.60239
0.72                   0.9987122        50.04067
0.724                  0.9979521        49.50227
0.728                  0.9975268        48.98067
0.732                  0.9975159        48.46658
0.736                  0.9979253        47.94955
0.74                   0.9986845         47.4199
0.744                    0.99966        46.87052
0.748                   1.000678         46.2981
0.752                   1.001556        45.70375
0.756                   1.002135         45.0928
0.76                    1.002307        44.47385
0.764                   1.002038        43.85727
0.768                    1.00137         43.2534
0.772                   1.000418        42.67074
0.776                   0.999348        42.11442
0.78                   0.9983507        41.58516
0.784                  0.9976055        41.07912
0.788                  0.9972492        40.58838
0.792                  0.9973495        40.10245
0.796                  0.9978923        39.61004
0.8                    0.9987833         39.1012
0.804                  0.9998646        38.56912
0.808                   1.000942        38.01138
0.812                   1.001822         37.4304
0.816                   1.002342        36.83294
0.82                    1.002405        36.22896
0.824                   1.001993        35.62992
0.828                   1.001173        35.04673
0.832                   1.000087        34.48784
0.836                  0.9989258         33.9577
0.84                   0.9978966        33.45586
0.844                  0.9971873        32.97687
0.848                  0.9969297        32.51125
0.852                  0.9971755        32.04706
0.856                  0.9978863        31.57213
0.86                   0.9989384        31.07629
0.864                   1.000145        30.55324
0.868                    1.00129        30.00171
0.872                   1.002166        29.42565
0.876                   1.002612        28.83357
0.88                     1.00254        28.23705
0.884                   1.001957         27.6487
0.888                   1.000959        27.08003
0.892                  0.9997191        26.53935
0.896                  0.9984557        26.03023
0.9                     0.997396        25.55072
0.904                  0.9967344        25.09354
0.908                  0.9965954         24.6473
0.912                  0.9970108         24.1985
0.916                  0.9979116        23.73405
0.92                     0.99914        23.24365
0.924                   1.000477        22.72172
0.928                   1.001681        22.16842
0.932                   1.002533         21.5896
0.936                   1.002873        20.99578
0.94                    1.002632        20.40031
0.944                   1.001843        19.81712
0.948                   1.000638        19.25824
0.952                  0.9992262        18.73165
0.956                  0.9978593        18.23976
0.96                   0.9967843        17.77874
0.964                   0.996201        17.33905
0.968                  0.9962227         16.9071
0.972                  0.9968545        16.46762
0.976                  0.9979903        16.00652
0.98                   0.9994311        15.51354
0.984                    1.00092         14.9841
0.988                   1.002188        14.42015
0.992                   1.003004        13.82984
0.996                   1.003211        13.22604
1                       1.002763        12.62421
1.004                   1.001728        12.03967
1.008                   1.000279        11.48498
1.012                  0.9986712        10.96764
1.016                  0.9971899        10.48852
1.02                   0.9961054        10.04153
1.024                   0.995621        9.614461
1.028                  0.9958342        9.191125
1.032                  0.9967168        8.754277
1.036                  0.9981176        8.288855
1.04                   0.9997893        7.784787
1.044                   1.001432        7.238848
1.048                   1.002746         6.65524
1.052                   1.003487        6.044845
1.056                    1.00351         5.42334
1.06                    1.002795        4.808543
1.064                   1.001455        4.217355
1.068                  0.9997147          3.6628
1.072                  0.9978795        3.151574
1.076                  0.9962781        2.682599
1.08                   0.9952047        2.246896
1.084                  0.9948645         1.82897
1.088                  0.9953325         1.40952
1.092                  0.9965376       0.9689995
1.096                  0.9982729       0.4912959
1.1                     1.000231     -0.03325683
1.104                   1.002062      -0.6061074
1.108                    1.00343       -1.220244
1.112                   1.004079       -1.861424
1.116                   1.003876       -2.510631
1.12                    1.002838        -3.14715
1.124                   1.001131        -3.75236
1.128                  0.9990439       -4.312685
1.132                   0.996944       -4.822535
1.136                  0.9952095       -5.285467
1.14                   0.9941628       -5.714032
1.144                  0.9940082       -6.127774
1.148                  0.9947913       -6.549733
1.152                  0.9963865        -7.00215
1.156                  0.9985172       -7.502246
1.16                    1.000805       -8.058998
1.164                   1.002835       -8.671519
1.168                   1.004233       -9.329234
1.172                   1.004731       -10.01373
1.176                   1.004213       -10.70182
1.18                    1.002745       -11.36941
1.184                    1.00056       -11.99561
1.188                  0.9980291       -12.56644
1.192                  0.9955978        -13.0777
1.196                  0.9937071       -13.53625
1.2                    0.9927129       -13.95932
1.204                  0.9928174       -14.37168
1.208                  0.9940262       -14.80119
1.212                  0.9961425       -15.27353
1.216                  0.9987996       -15.80726
1.22                    1.001525       -16.41039
1.224                   1.003826         -17.079
1.228                   1.005276       -17.79794
1.232                   1.005589       -18.54342
1.236                   1.004674       -19.28695
1.24                    1.002656       -19.99997
1.244                  0.9998597       -20.65869
1.248                  0.9967596       -21.24844
1.252                  0.9939035       -21.76686
1.256                  0.9918145       -22.22509
1.26                   0.9908939       -22.64652
1.264                  0.9913408       -23.06289
1.268                  0.9931075       -23.50848
1.272                  0.9959021       -24.01346
1.276                  0.9992373       -24.59813
1.28                    1.002517       -25.26918
1.284                    1.00514       -26.01856
1.288                    1.00661         -26.825
1.292                   1.006618       -27.65748
1.296                   1.005105       -28.48025
1.3                     1.002276       -29.25851
1.304                  0.9985794       -29.96427
1.308                   0.994636       -30.58161
1.312                  0.9911408       -31.11048
1.316                  0.9887375       -31.56796
1.32                   0.9878973        -31.9863
1.324                  0.9888203       -32.40742
1.328                  0.9913872       -32.87513
1.332                   0.995172       -33.42647
1.336                  0.9995141       -34.08465
1.34                    1.003635       -34.85479
1.344                   1.006774       -35.72327
1.348                   1.008323       -36.66023
1.352                   1.007929       -37.62436
1.356                   1.005567        -38.5692
1.36                    1.001552       -39.45035
1.364                   0.996507       -40.23283
1.368                  0.9912721       -40.89789
1.372                  0.9867698       -41.44811
1.376                  0.9838399       -41.90912
1.38                   0.9830758       -42.32669
1.384                  0.9846942       -42.75911
1.388                  0.9884755       -43.26584
1.392                  0.9937889       -43.89564
1.396                     0.9997       -44.67715
1.4                     1.005133        -45.6139
1.404                   1.009059       -46.68425
1.408                   1.010668       -47.84528
1.412                   1.009509        -49.0393
1.416                   1.005581       -50.20206
1.42                   0.9993549       -51.27186
1.424                  0.9917335       -52.19966
1.428                  0.9839334       -52.95884
1.432                  0.9772978       -53.55361
1.436                  0.9730592        -54.0229
1.44                   0.9720895       -54.43711
1.444                  0.9746965        -54.8865
1.448                  0.9805253        -55.4633
1.452                  0.9885936       -56.24264
1.456                  0.9974573         -57.268
1.46                    1.005457       -58.54457
1.464                   1.010993       -60.04012
1.468                   1.012782       -61.69118
1.472                   1.010065       -63.41192
1.476                   1.002748        -65.1044
1.48                   0.9914731       -66.67009
1.484                  0.9776024       -68.02397
1.488                  0.9630938        -69.1117
1.492                  0.9502485       -69.92855
1.496                  0.9413257       -70.53506
1.5                    0.9380669       -71.06067
1.504                  0.9412371       -71.68743
1.508                  0.9503319       -72.61489
1.512                  0.9635572       -74.01837
1.516                  0.9780785       -76.01816
1.52                   0.9904351       -78.66872
1.524                  0.9969844       -81.96572
1.528                  0.9942772       -85.86142
1.532                  0.9793363       -90.28017
1.536                  0.9498361       -95.12933
1.54                     0.90421       -100.3036
1.544                  0.8417051       -105.6823
1.548                  0.7624024       -111.1156
1.552                  0.6672227        -116.393
1.556                  0.5579551       -121.1631
1.56                   0.4374152       -124.7097
1.564                  0.3102073       -125.1698
1.568                  0.1870743       -115.8803
1.572                  0.1164407       -72.40835
1.576                  0.1845091       -27.90851
1.58                   0.3074494       -18.21749
1.584                  0.4350207       -18.60052
1.588                  0.5561389       -22.16149
1.592                   0.666086       -26.98804
1.596                  0.7619606       -32.34951
1.6                    0.8418904       -37.88887
1.604                  0.9048716       -43.39241
1.608                  0.9507456       -48.70808
1.612                  0.9801993       -53.71217
1.616                  0.9947548       -58.29556
1.62                   0.9967243       -62.36032
1.624                  0.9891169       -65.82393
1.628                   0.975468       -68.63063
1.632                   0.959568       -70.76837
1.636                  0.9450758        -72.2871
1.64                   0.9350463       -73.30884
1.644                   0.931465       -74.01886
1.648                  0.9349445       -74.63321
1.652                  0.9447127       -75.35243
1.656                  0.9589082       -76.32094
1.66                   0.9750726       -77.60757
1.664                   0.990669       -79.20914
1.668                   1.003505       -81.06766
1.672                   1.012012       -83.09104
1.676                   1.015389       -85.17151
1.68                    1.013634       -87.20019
1.684                   1.007484       -89.07893
1.688                  0.9982885       -90.73115
1.692                  0.9878002         -92.112
1.696                  0.9779152        -93.2169
1.7                    0.9703675       -94.08548
1.704                  0.9664334       -94.79716
1.708                  0.9667069       -95.45685
1.712                  0.9710116       -96.17347
1.716                  0.9784721       -97.03746
1.72                    0.987722       -98.10458
1.724                  0.9971849       -99.38998
1.728                   1.005356       -100.8711
1.732                   1.011033       -102.4963
1.736                   1.013476       -104.1965
1.74                    1.012483       -105.8954
1.744                   1.008389       -107.5201
1.748                   1.002004       -109.0104
1.752                  0.9944802       -110.3274
1.756                  0.9871301         -111.46
1.76                   0.9812147       -112.4281
1.764                  0.9777276       -113.2804
1.768                  0.9772194       -114.0865
1.772                  0.9797066       -114.9228
1.776                  0.9846844       -115.8576
1.78                   0.9912416       -116.9386
1.784                  0.9982421       -118.1852
1.788                   1.004532       -119.5889
1.792                   1.009126       -121.1168
1.796                   1.011352       -122.7189
1.8                     1.010939       -124.3369
1.804                   1.008039       -125.9123
1.808                   1.003195       -127.3944
1.812                  0.9972535       -128.7478
1.816                  0.9912289       -129.9581
1.82                   0.9861406       -131.0352
1.824                  0.9828393       -132.0123
1.828                  0.9818596       -132.9409
1.832                  0.9833266        -133.881
1.836                  0.9869419       -134.8893
1.84                    0.992049       -136.0091
1.844                  0.9977631        -137.263
1.848                   1.003131       -138.6504
1.852                    1.00729       -140.1496
1.856                   1.009602       -141.7227
1.86                    1.009742       -143.3225
1.864                   1.007738       -144.8989
1.868                   1.003957       -146.4068
1.872                  0.9990514       -147.8122
1.876                  0.9938482       -149.0978
1.88                   0.9892217       -150.2661
1.884                  0.9859449         -151.34
1.888                  0.9845569       -152.3595
1.892                  0.9852684       -153.3739
1.896                  0.9879276       -154.4332
1.9                    0.9920545       -155.5786
1.904                  0.9969341       -156.8349
1.908                   1.001746        -158.208
1.912                   1.005704       -159.6843
1.916                   1.008182       -161.2348
1.92                    1.008803       -162.8196
1.924                   1.007496       -164.3948
1.928                   1.004498       -165.9184
1.932                   1.000315       -167.3568
1.936                  0.9956448       -168.6895
1.94                   0.9912652       -169.9132
1.944                  0.9879048       -171.0432
1.948                  0.9861205       -172.1106
1.952                  0.9861984       -173.1577
1.956                  0.9881047         -174.23
1.96                   0.9914964       -175.3675
1.964                  0.9957855        -176.598
1.968                   1.000247       -177.9326
1.972                   1.004145       -179.3644
1.976                   1.006849        179.1287
1.98                    1.007933        177.5805
1.984                   1.007239        176.0307
1.988                   1.004892        174.5192
1.992                   1.001284        173.0802
1.996                  0.9970124        171.7369
2                      0.9927845        170.4976
2.004                  0.9893028        169.3539
2.008                  0.9871478         168.281
2.012                  0.9866747        167.2424
2.016                  0.9879517        166.1958
2.02                   0.9907488        165.1014
2.024                  0.9945812        163.9287
2.028                  0.9987984         162.662
2.032                   1.002697        161.3019
2.036                   1.005636         159.865
2.04                    1.007141        158.3802
2.044                   1.006973        156.8837
2.048                   1.005162        155.4144
2.052                   1.002004        154.0071
2.056                  0.9980154        152.6881
2.06                   0.9938509        151.4702
2.064                  0.9901999        150.3504
2.068                  0.9876721        149.3098
2.072                  0.9866894        148.3162
2.076                  0.9874118        147.3295
2.08                   0.9897085        146.3096
2.084                  0.9931815        145.2232
2.088                  0.9972389        144.0499
2.092                   1.001198         142.785
2.096                     1.0044        141.4397
2.1                     1.006317        140.0389
2.104                   1.006633        138.6164
2.108                   1.005291        137.2101
2.112                     1.0025        135.8565
2.116                  0.9987104        134.5847
2.12                   0.9945366         133.412
2.124                  0.9906663        132.3407
2.128                  0.9877452        131.3567
2.132                   0.986265        130.4314
2.136                  0.9864753        129.5264
2.14                   0.9883373        128.6006
2.144                  0.9915299        127.6173
2.148                  0.9955072        126.5512
2.152                   0.999595        125.3923
2.156                   1.003105        124.1472
2.16                    1.005447        122.8368
2.164                   1.006224        121.4934
2.168                   1.005288        120.1549
2.172                   1.002771        118.8597
2.176                    0.99906        117.6408
2.18                    0.994746        116.5205
2.184                  0.9905293        115.5063
2.188                  0.9871081        114.5889
2.192                  0.9850587         113.743
2.196                  0.9847313        112.9307
2.2                     0.986185        112.1088
2.204                  0.9891728        111.2362
2.208                  0.9931859        110.2816
2.212                  0.9975409        109.2288
2.216                   1.001498         108.079
2.22                    1.004382        106.8498
2.224                   1.005689        105.5722
2.228                   1.005167        104.2853
2.232                   1.002854        103.0311
2.236                  0.9990809        101.8477
2.24                   0.9944209         100.764
2.244                   0.989611        99.79446
2.248                  0.9854336        98.93533
2.252                  0.9825871        98.16447
2.256                  0.9815603        97.44394
2.26                   0.9825395        96.72625
2.264                  0.9853678         95.9631
2.268                  0.9895678        95.11419
2.272                  0.9944222        94.15441
2.276                  0.9990957        93.07778
2.28                    1.002772        91.89769
2.284                   1.004784        90.64432
2.288                   1.004717        89.35981
2.292                   1.002477        88.09225
2.296                  0.9983146        86.88898
2.3                    0.9927957         85.7897
2.304                  0.9867325        84.81981
2.308                  0.9810644        83.98481
2.312                   0.976709        83.26738
2.316                  0.9744017        82.62809
2.32                   0.9745538        82.01094
2.324                  0.9771631        81.35296
2.328                  0.9817969        80.59591
2.332                  0.9876572        79.69694
2.336                   0.993708        78.63573
2.34                   0.9988422        77.41721
2.344                   1.002052        76.06985
2.348                   1.002584        74.64122
2.352                   1.000052        73.19155