! TOUCHSTONE file generated by CST MICROWAVE STUDIO
! Date and time: Tue Jun  7 20:51:58 2022
! Project name: AppElm_antenne_patch_FR4.cst
! Parameters = {L=45; W=58.5; e=0.035; h=1.6; lambda=0.190476; ls=120; w0=1.6; w1=0.533333; ws=120; y0=20; y1=26.19}
! Header version: 2018
! Port assignment regex: !\s*Touchstone port\s*([0-9]+)\s*=\s*(CST MWS port|CST DS port)\s*([0-9]+|Zmin|Zmax)\s*\(\"(.*)\"\)(\s*mode\s*([0-9]+))?.*
! Touchstone port assignment:
! Touchstone port 1 = CST MWS port 1 ("")
# GHz S MA R 50
0                      0.9899088              -0
0.004                  0.9905229       -9.969536
0.008                  0.9922797       -19.85231
0.012                  0.9949346       -29.56573
0.016                  0.9981223       -39.03494
0.02                    1.001412       -48.19521
0.024                   1.004369       -56.99315
0.028                   1.006617       -65.38691
0.032                   1.007886       -73.34575
0.036                   1.008045        -80.8495
0.04                     1.00712       -87.88801
0.044                   1.005281       -94.46086
0.048                   1.002821       -100.5773
0.052                   1.000108       -106.2564
0.056                  0.9975367       -111.5262
0.06                   0.9954662       -116.4229
0.064                  0.9941704       -120.9887
0.068                  0.9937987        -125.269
0.072                  0.9943567       -129.3088
0.076                  0.9957107       -133.1493
0.08                   0.9976135       -136.8249
0.084                  0.9997487       -140.3611
0.088                    1.00178       -143.7743
0.092                   1.003406       -147.0718
0.096                     1.0044       -150.2541
0.1                     1.004644       -153.3167
0.104                   1.004139       -156.2532
0.108                   1.003001       -159.0575
0.112                   1.001439        -161.727
0.116                  0.9997203       -164.2633
0.12                   0.9981262       -166.6739
0.124                   0.996908       -168.9718
0.128                  0.9962475       -171.1746
0.132                  0.9962297        -173.302
0.136                  0.9968315        -175.374
0.14                   0.9979303        -177.408
0.144                  0.9993271       -179.4167
0.148                   1.000782        178.5926
0.152                   1.002056         176.619
0.156                   1.002947        174.6667
0.16                    1.003323        172.7441
0.164                    1.00314        170.8614
0.168                   1.002448         169.029
0.172                   1.001377        167.2551
0.176                   1.000115         165.544
0.18                    0.998879        163.8957
0.184                  0.9978738        162.3051
0.188                   0.997262        160.7628
0.192                  0.9971354        159.2566
0.196                  0.9975018        157.7731
0.2                    0.9982858        156.3003
0.204                  0.9993438        154.8289
0.208                    1.00049        153.3539
0.212                   1.001527        151.8749
0.216                   1.002284        150.3961
0.22                    1.002639        148.9251
0.224                    1.00254        147.4715
0.228                   1.002014        146.0451
0.232                   1.001157        144.6541
0.236                   1.000123        143.3039
0.24                   0.9990878        141.9959
0.244                  0.9982295        140.7272
0.248                  0.9976912         139.491
0.252                   0.997559        138.2778
0.256                  0.9978486        137.0772
0.26                   0.9985026        135.8789
0.264                  0.9994021        134.6753
0.268                   1.000388        133.4623
0.272                    1.00129        132.2395
0.276                   1.001954        131.0108
0.28                     1.00227         129.783
0.284                   1.002188         128.565
0.288                   1.001727        127.3657
0.292                   1.000971         126.193
0.296                   1.000052        125.0521
0.3                    0.9991318        123.9447
0.304                  0.9983678        122.8685
0.308                   0.997891        121.8177
0.312                  0.9977809        120.7842
0.316                  0.9980528        119.7584
0.32                    0.998655        118.7314
0.324                  0.9994799        117.6964
0.328                   1.000382        116.6495
0.332                   1.001203        115.5909
0.336                   1.001803         114.524
0.34                    1.002079        113.4556
0.344                   1.001986        112.3938
0.348                   1.001543        111.3471
0.352                    1.00083        110.3231
0.356                  0.9999707        109.3266
0.36                   0.9991173        108.3591
0.364                  0.9984181        107.4185
0.368                  0.9979949        106.4994
0.372                  0.9979205        105.5939
0.376                  0.9982063        104.6931
0.38                   0.9988004        103.7888
0.384                  0.9995977        102.8745
0.388                   1.000457        101.9469
0.392                   1.001229        101.0064
0.396                   1.001779        100.0567
0.4                     1.002012        99.10417
0.404                   1.001888        98.15709
0.408                    1.00143        97.22371
0.412                   1.000719        96.31109
0.416                  0.9998799        95.42379
0.42                   0.9990596         94.5631
0.424                  0.9984024        93.72673
0.428                  0.9980234        92.90911
0.432                  0.9979892        92.10247
0.436                  0.9983051        91.29816
0.44                    0.998915        90.48813
0.444                  0.9997108        89.66643
0.448                   1.000552        88.83014
0.452                   1.001291        87.97995
0.456                   1.001797        87.11989
0.46                    1.001982        86.25671
0.464                   1.001814        85.39855
0.468                   1.001321        84.55365
0.472                    1.00059        83.72881
0.476                  0.9997485        82.92829
0.48                   0.9989456        82.15292
0.484                  0.9983227        81.40005
0.488                  0.9979904         80.6638
0.492                  0.9980079        79.93617
0.496                  0.9983727        79.20851
0.5                    0.9990203        78.47291
0.504                  0.9998365        77.72375
0.508                   1.000677        76.95861
0.512                   1.001392        76.17867
0.516                   1.001857        75.38847
0.52                    1.001987        74.59515
0.524                   1.001759         73.8071
0.528                   1.001211        73.03257
0.532                   1.000438        72.27824
0.536                  0.9995762        71.54796
0.54                   0.9987768        70.84208
0.544                  0.9981817        70.15733
0.548                  0.9978971        69.48735
0.552                  0.9979746        68.82374
0.556                  0.9984012        68.15765
0.56                   0.9991019        67.48127
0.564                  0.9999528         66.7893
0.568                   1.000803        66.07985
0.572                   1.001501        65.35473
0.576                   1.001922        64.61917
0.58                     1.00199        63.88085
0.584                   1.001692         63.1485
0.588                   1.001076        62.43051
0.592                   1.000252        61.73335
0.596                  0.9993621        61.06045
0.6                    0.9985659        60.41154
0.604                  0.9980051         59.7826
0.608                  0.9977815        59.16655
0.612                  0.9979369        58.55446
0.616                  0.9984455         57.9372
0.62                   0.9992187          57.307
0.624                    1.00012        56.65895
0.628                   1.000989        55.99181
0.632                   1.001671        55.30817
0.636                   1.002044         54.6141
0.64                    1.002039        53.91796
0.644                   1.001653          53.229
0.648                   1.000953        52.55575
0.652                    1.00006         51.9045
0.656                  0.9991313        51.27817
0.66                   0.9983318        50.67569
0.664                  0.9978057        50.09215
0.668                  0.9976487         49.5196
0.672                  0.9978916        48.94845
0.676                  0.9984934        48.36919
0.68                   0.9993487        47.77415
0.684                   1.000306        47.15883
0.688                   1.001194        46.52277
0.692                   1.001854        45.86955
0.696                   1.002167        45.20615
0.7                     1.002072         44.5418
0.704                   1.001584        43.88631
0.708                   1.000784        43.24836
0.712                  0.9998131          42.634
0.716                  0.9988419        42.04548
0.72                   0.9980442         41.4808
0.724                  0.9975648        40.93393
0.728                  0.9974926         40.3959
0.732                  0.9978441        39.85633
0.736                    0.99856        39.30533
0.74                   0.9995146        38.73532
0.744                   1.000539        38.14238
0.748                   1.001449        37.52697
0.752                   1.002082        36.89379
0.756                   1.002321        36.25103
0.76                     1.00212        35.60886
0.764                   1.001509        34.97772
0.768                   1.000591        34.36648
0.772                  0.9995272        33.78084
0.776                  0.9985057        33.22227
0.78                   0.9977093        32.68762
0.784                  0.9972833        32.16959
0.788                  0.9973074        31.65799
0.792                  0.9977816        31.14156
0.796                  0.9986242        30.61002
0.8                    0.9996867        30.05595
0.804                   1.000779        29.47614
0.808                   1.001706        28.87216
0.812                   1.002299        28.25006
0.816                   1.002446        27.61934
0.82                    1.002117        26.99128
0.824                   1.001362        26.37698
0.828                   1.000311        25.78544
0.832                  0.9991471         25.2219
0.836                  0.9980777        24.68683
0.84                   0.9972956         24.1757
0.844                  0.9969449        23.67969
0.848                  0.9970938        23.18721
0.852                   0.997721        22.68602
0.856                  0.9987186        22.16544
0.86                    0.999911        21.61831
0.864                   1.001085        21.04231
0.868                   1.002031        20.44036
0.872                   1.002575        19.82011
0.876                   1.002614        19.19259
0.88                    1.002134         18.5703
0.884                   1.001214        17.96511
0.888                    1.00001        17.38608
0.892                  0.9987337        16.83788
0.896                   0.997613        16.31975
0.9                    0.9968512        15.82553
0.904                    0.99659        15.34465
0.908                  0.9968829        14.86395
0.912                  0.9976834        14.37008
0.916                  0.9988527        13.85198
0.92                    1.000184        13.30292
0.924                   1.001439        12.72168
0.928                    1.00239         12.1128
0.932                   1.002863        11.48575
0.936                   1.002763        10.85333
0.94                    1.002101        10.22945
0.944                   1.000984        9.626712
0.948                  0.9996039        9.054218
0.952                  0.9982039        8.515816
0.956                  0.9970346        8.009263
0.96                   0.9963105         7.52643
0.964                  0.9961688        7.054637
0.968                  0.9966436        6.578895
0.972                  0.9976578        6.084649
0.976                  0.9990357        5.560477
0.98                    1.000534        5.000194
0.984                   1.001884         4.40396
0.988                   1.002841        3.778256
0.992                   1.003228        3.134738
0.996                   1.002965        2.488247
1                       1.002087        1.854281
1.004                    1.00074        1.246317
1.008                  0.9991551       0.6734017
1.012                  0.9976127        0.138398
1.016                    0.99639      -0.3627466
1.02                   0.9957127      -0.8404991
1.024                  0.9957113       -1.309998
1.028                  0.9963967       -1.788343
1.032                  0.9976544       -2.291437
1.036                  0.9992651       -2.831029
1.04                    1.000943       -3.412548
1.044                   1.002385       -4.034137
1.048                   1.003327       -4.686986
1.052                   1.003591       -5.356859
1.056                   1.003114       -6.026512
1.06                    1.001966       -6.678607
1.064                   1.000337       -7.298711
1.068                  0.9985064       -7.877914
1.072                  0.9967976       -8.414619
1.076                    0.99552       -8.915135
1.08                   0.9949114       -9.392784
1.084                  0.9950938       -9.865761
1.088                  0.9960479       -10.35363
1.092                  0.9976136       -10.87401
1.096                  0.9995182       -11.43892
1.1                     1.001423       -12.05281
1.104                   1.002986       -12.71182
1.108                   1.003919       -13.40424
1.112                   1.004041       -14.11275
1.116                   1.003313       -14.81718
1.12                    1.001844       -15.49799
1.124                  0.9998773       -16.13954
1.128                  0.9977523       -16.73306
1.132                  0.9958453       -17.27854
1.136                  0.9945033       -17.78499
1.14                   0.9939799       -18.26932
1.144                  0.9943857        -18.7533
1.148                  0.9956643       -19.25972
1.152                  0.9975994       -19.80799
1.156                  0.9998523       -20.41059
1.16                    1.002021       -21.07078
1.164                   1.003713       -21.78203
1.168                   1.004612       -22.52916
1.172                   1.004536       -23.29098
1.176                   1.003472       -24.04369
1.18                     1.00158       -24.76492
1.184                   0.999172       -25.43753
1.188                  0.9966619       -26.05292
1.192                  0.9944946       -26.61294
1.196                  0.9930671       -27.13015
1.2                    0.9926536       -27.62598
1.204                  0.9933515       -28.12703
1.208                  0.9950581       -28.66014
1.212                  0.9974851       -29.24736
1.216                   1.000209       -29.90175
1.22                    1.002745       -30.62512
1.224                   1.004633       -31.40769
1.228                   1.005517       -32.22988
1.232                   1.005212       -33.06549
1.236                   1.003733       -33.88598
1.24                    1.001304       -34.66517
1.244                  0.9983258       -35.38372
1.248                  0.9953083       -36.03293
1.252                  0.9927886       -36.61692
1.256                  0.9912322       -37.15275
1.26                   0.9909454       -37.66782
1.264                  0.9920118       -38.19515
1.268                  0.9942697        -38.7672
1.272                  0.9973371       -39.40965
1.276                   1.000677       -40.13658
1.28                    1.003691       -40.94801
1.284                   1.005826       -41.83003
1.288                   1.006668       -42.75711
1.292                   1.006018       -43.69634
1.296                   1.003929       -44.61252
1.3                     1.000709       -45.47385
1.304                  0.9968764       -46.25744
1.308                    0.99308       -46.95391
1.312                  0.9899921       -47.57013
1.316                  0.9881857       -48.12918
1.32                   0.9880233        -48.6671
1.324                  0.9895801       -49.22645
1.328                  0.9926193       -49.84835
1.332                  0.9966273       -50.56444
1.336                   1.000903       -51.39102
1.34                     1.00468       -52.32627
1.344                   1.007258       -53.35081
1.348                   1.008125       -54.43098
1.352                   1.007044       -55.52413
1.356                   1.004106       -56.58501
1.36                   0.9997272        -57.5728
1.364                  0.9945938       -58.45823
1.368                  0.9895652       -59.22951
1.372                  0.9855283       -59.89643
1.376                  0.9832386       -60.49062
1.38                   0.9831691       -61.06131
1.384                  0.9854042       -61.66662
1.388                  0.9896067       -62.36234
1.392                  0.9950665       -63.19095
1.396                   1.000822       -64.17369
1.4                     1.005827       -65.30719
1.404                   1.009124       -66.56459
1.408                   1.010009       -67.89996
1.412                   1.008153       -69.25512
1.416                   1.003665       -70.56775
1.42                   0.9971093       -71.78035
1.424                  0.9894405       -72.84985
1.428                  0.9818784       -73.75687
1.432                  0.9757163       -74.51281
1.436                  0.9720882       -75.16232
1.44                   0.9717366       -75.77849
1.444                  0.9748368       -76.45034
1.448                  0.9809263       -77.26527
1.452                  0.9889651       -78.29133
1.456                   0.997508       -79.56476
1.46                    1.004949        -81.0849
1.464                    1.00978       -82.81605
1.468                   1.010828       -84.69388
1.472                   1.007444       -86.63407
1.476                  0.9996247       -88.54224
1.48                   0.9880704       -90.32516
1.484                  0.9741555       -91.90452
1.488                  0.9597958       -93.23321
1.492                  0.9471981       -94.31312
1.496                  0.9384858       -95.20894
1.5                    0.9352511        -96.0502
1.504                  0.9381352        -97.0146
1.508                  0.9465695       -98.29449
1.512                  0.9587738       -100.0583
1.516                  0.9719994       -102.4227
1.52                   0.9829192       -105.4431
1.524                  0.9880431       -109.1208
1.528                  0.9840686       -113.4179
1.532                  0.9681403       -118.2726
1.536                  0.9380191       -123.6111
1.54                   0.8921784       -129.3545
1.544                  0.8298506       -135.4213
1.548                  0.7510322       -141.7245
1.552                  0.6564602       -148.1626
1.556                  0.5475669       -154.5947
1.56                   0.4264281       -160.7675
1.564                  0.2957514       -166.0399
1.568                  0.1592904       -167.6644
1.572                 0.03695296       -119.2291
1.576                  0.1331068       -29.99119
1.58                   0.2699792       -29.79035
1.584                  0.4021249       -34.76332
1.588                  0.5253204       -40.89415
1.592                  0.6366994       -47.37742
1.596                  0.7340404        -53.9193
1.6                    0.8157541       -60.36501
1.604                  0.8809359       -66.60736
1.608                   0.929417       -72.55634
1.612                  0.9617982       -78.12765
1.616                  0.9794546       -83.23888
1.62                   0.9845075        -87.8109
1.624                  0.9797448       -91.77385
1.628                  0.9684757       -95.07854
1.632                  0.9542922       -97.71278
1.636                  0.9407262       -99.71868
1.64                   0.9308215       -101.2043
1.644                  0.9266932       -102.3391
1.648                  0.9292101       -103.3275
1.652                  0.9379232       -104.3679
1.656                  0.9512841       -105.6127
1.66                   0.9670683       -107.1455
1.664                  0.9828607       -108.9799
1.668                  0.9964761       -111.0731
1.672                   1.006254       -113.3453
1.676                   1.011226       -115.6969
1.68                    1.011173       -118.0238
1.684                   1.006596       -120.2286
1.688                  0.9986135       -122.2312
1.692                  0.9887954       -123.9786
1.696                  0.9789305       -125.4531
1.7                    0.9707553       -126.6785
1.704                  0.9656679       -127.7182
1.708                  0.9644891       -128.6655
1.712                  0.9673289       -129.6255
1.716                  0.9735959       -130.6934
1.72                   0.9821476       -131.9369
1.724                   0.991532       -133.3862
1.728                   1.000257       -135.0342
1.732                    1.00703       -136.8425
1.736                   1.010939       -138.7509
1.74                    1.011555       -140.6883
1.744                   1.008966       -142.5821
1.748                   1.003747       -144.3682
1.752                  0.9968615       -145.9985
1.756                  0.9895131       -147.4487
1.76                   0.9829586       -148.7231
1.764                  0.9783016       -149.8551
1.768                  0.9763034       -150.9022
1.772                  0.9772519        -151.936
1.776                  0.9809217       -153.0275
1.78                   0.9866326       -154.2344
1.784                    0.99339       -155.5904
1.788                   1.000073       -157.1022
1.792                   1.005625       -158.7504
1.796                   1.009213       -160.4955
1.8                     1.010348       -162.2849
1.804                   1.008934       -164.0613
1.808                   1.005279       -165.7702
1.812                   1.000035       -167.3678
1.816                  0.9940994       -168.8274
1.82                   0.9884726       -170.1437
1.824                  0.9840954       -171.3352
1.828                  0.9816901       -172.4413
1.832                  0.9816349        -173.516
1.836                  0.9838999       -174.6174
1.84                   0.9880626       -175.7968
1.844                  0.9933935       -177.0896
1.848                  0.9989935       -178.5098
1.852                   1.003951        179.9505
1.856                    1.00749        178.3182
1.86                    1.009082        176.6341
1.864                   1.008522         174.946
1.868                   1.005947        173.3018
1.872                   1.001815        171.7428
1.876                  0.9968266        170.2975
1.88                   0.9918203         168.977
1.884                  0.9876344        167.7723
1.888                  0.9849664        166.6555
1.892                   0.984252        165.5836
1.896                  0.9855893        164.5071
1.9                    0.9887249        163.3787
1.904                   0.993106        162.1623
1.908                  0.9979848        160.8389
1.912                    1.00255        159.4087
1.916                   1.006065          157.89
1.92                    1.007977        156.3153
1.924                   1.008004        154.7256
1.928                   1.006167        153.1644
1.932                   1.002787        151.6714
1.936                  0.9984342        150.2762
1.94                   0.9938344        148.9942
1.944                  0.9897573        147.8228
1.948                  0.9868856        146.7417
1.952                  0.9856964        145.7157
1.956                  0.9863772        144.7008
1.96                   0.9887937        143.6525
1.964                  0.9925181        142.5342
1.968                  0.9969086        141.3232
1.972                   1.001225         140.014
1.976                   1.004756        138.6188
1.98                    1.006929        137.1639
1.984                   1.007406        135.6856
1.988                   1.006121        134.2243
1.992                   1.003298        132.8184
1.996                  0.9994093         131.499
2                      0.9951043        130.2841
2.004                  0.9911048         129.176
2.008                  0.9880845          128.16
2.012                  0.9865529        127.2061
2.016                  0.9867639        126.2743
2.02                   0.9886699         125.322
2.024                  0.9919325         124.312
2.028                  0.9959863        123.2187
2.032                    1.00014        122.0327
2.036                   1.003696        120.7613
2.04                    1.006066        119.4266
2.044                   1.006864        118.0615
2.048                   1.005962        116.7043
2.052                   1.003509         115.393
2.056                  0.9999118        114.1597
2.06                   0.9957657        113.0251
2.064                  0.9917645        111.9951
2.068                  0.9885836        111.0589
2.072                  0.9867632        110.1902
2.076                  0.9866113        109.3516
2.08                   0.9881476        108.5015
2.084                  0.9910989        107.6014
2.088                  0.9949512        106.6236
2.092                  0.9990419        105.5549
2.096                   1.002676        104.3991
2.1                     1.005241        103.1752
2.104                   1.006307        101.9139
2.108                   1.005691        100.6525
2.112                   1.003488        99.42936
2.116                   1.000054        98.27792
2.12                    0.995953        97.22151
2.124                   0.991868        96.26908
2.128                  0.9884892          95.413
2.132                  0.9863938        94.62958
2.136                   0.985942        93.88278
2.14                   0.9872105        93.13065
2.144                   0.989976        92.33316
2.148                  0.9937564        91.45949
2.152                  0.9978975        90.49349
2.156                   1.001688        89.43578
2.16                    1.004479         88.3031
2.164                    1.00579          87.125
2.168                   1.005384        85.93893
2.172                   1.003305        84.78461
2.176                  0.9998743        83.69797
2.18                    0.995643        82.70549
2.184                  0.9913066        81.81947
2.188                  0.9875923        81.03518
2.192                  0.9851345        80.33068
2.196                  0.9843597        79.67001
2.2                    0.9854062        79.00945
2.204                  0.9880944        78.30559
2.208                  0.9919583        77.52345
2.212                  0.9963282        76.64271
2.216                   1.000448        75.66069
2.22                    1.003603        74.59227
2.224                   1.005236        73.46678
2.228                   1.005037        72.32323
2.232                   1.002993        71.20447
2.236                  0.9993936        70.15075
2.24                   0.9947934        69.19352
2.244                  0.9899297        68.34988
2.248                  0.9856064        67.61875
2.252                  0.9825576        66.97971
2.256                  0.9813162        66.39547
2.26                   0.9821102        65.81801
2.264                  0.9848138        65.19741
2.268                  0.9889652        64.49126
2.272                  0.9938446        63.67237
2.276                  0.9985999        62.73304
2.28                    1.002388        61.68588
2.284                   1.004515        60.56097
2.288                   1.004541        59.40115
2.292                   1.002359        58.25563
2.296                  0.9982145        57.17313
2.3                    0.9926842        56.19454
2.304                  0.9865991        55.34603
2.308                  0.9809221         54.6333
2.312                  0.9765927        54.03835
2.316                  0.9743598        53.52041
2.32                   0.9746344         53.0218
2.324                  0.9773977        52.47806
2.328                  0.9821884         51.8301
2.332                  0.9881725        51.03522
2.336                  0.9942801        50.07436
2.34                   0.9993806        48.95447
2.344                   1.002459        47.70664
2.348                   1.002775        46.38113
2.352                  0.9999774        45.04057