! TOUCHSTONE file generated by CST MICROWAVE STUDIO
! Date and time: Tue Jun  7 20:52:00 2022
! Project name: AppElm_antenne_patch_FR4.cst
! Parameters = {L=45; W=58.5; e=0.035; h=1.6; lambda=0.190476; ls=120; w0=1.6; w1=0.533333; ws=120; y0=20; y1=28.57}
! Header version: 2018
! Port assignment regex: !\s*Touchstone port\s*([0-9]+)\s*=\s*(CST MWS port|CST DS port)\s*([0-9]+|Zmin|Zmax)\s*\(\"(.*)\"\)(\s*mode\s*([0-9]+))?.*
! Touchstone port assignment:
! Touchstone port 1 = CST MWS port 1 ("")
# GHz S MA R 50
0                      0.9906064              -0
0.004                  0.9911925       -10.00952
0.008                  0.9928674       -19.93258
0.012                  0.9953934       -29.68683
0.016                  0.9984164       -39.19755
0.02                    1.001519       -48.40007
0.024                   1.004284       -57.24097
0.028                    1.00635       -65.67837
0.032                   1.007464       -73.68158
0.036                   1.007512       -81.23057
0.04                    1.006528       -88.31548
0.044                   1.004693        -94.9364
0.048                   1.002298       -101.1033
0.052                  0.9997081        -106.836
0.056                  0.9973037       -112.1631
0.06                   0.9954263       -117.1214
0.064                  0.9943268       -121.7532
0.068                  0.9941307       -126.1037
0.072                  0.9948203        -130.217
0.076                   0.996245        -134.133
0.08                   0.9981481       -137.8846
0.084                   1.000213       -141.4958
0.088                   1.002112       -144.9813
0.092                   1.003563       -148.3475
0.096                   1.004361       -151.5939
0.1                     1.004417       -154.7161
0.104                   1.003758       -157.7078
0.108                   1.002521       -160.5641
0.112                   1.000931       -163.2834
0.116                  0.9992599       -165.8691
0.12                   0.9977827       -168.3304
0.124                  0.9967341       -170.6816
0.128                  0.9962705       -172.9411
0.132                  0.9964468       -175.1291
0.136                  0.9972102       -177.2651
0.14                    0.998413       -179.3655
0.144                  0.9998399        178.5584
0.148                   1.001247        176.5013
0.152                     1.0024        174.4638
0.156                   1.003119        172.4518
0.16                    1.003296        170.4743
0.164                   1.002919         168.542
0.168                   1.002068        166.6646
0.172                   1.000898        164.8494
0.176                  0.9996138        163.0993
0.18                   0.9984356        161.4122
0.184                    0.99756        159.7813
0.188                  0.9971286        158.1957
0.192                  0.9972042        156.6422
0.196                  0.9977614        155.1076
0.2                    0.9986939        153.5803
0.204                  0.9998331        152.0523
0.208                    1.00098        150.5204
0.212                   1.001938        148.9862
0.216                   1.002547        147.4554
0.22                     1.00271        145.9371
0.224                   1.002407        144.4415
0.228                   1.001698        142.9783
0.232                   1.000709        141.5549
0.236                  0.9996146        140.1753
0.24                   0.9986038         138.839
0.244                  0.9978495        137.5411
0.248                   0.997478        136.2731
0.252                  0.9975482        135.0243
0.256                   0.998041        133.7837
0.26                   0.9988653        132.5417
0.264                  0.9998734        131.2916
0.268                   1.000888        130.0309
0.272                   1.001733        128.7614
0.276                   1.002265        127.4889
0.28                    1.002396        126.2217
0.284                   1.002105        124.9694
0.288                   1.001449        123.7414
0.292                   1.000542        122.5446
0.296                  0.9995456         121.383
0.3                    0.9986319        120.2563
0.304                    0.99796        119.1602
0.308                  0.9976452        118.0871
0.312                  0.9977396        117.0273
0.316                   0.998224        115.9706
0.32                   0.9990106        114.9085
0.324                  0.9999598         113.835
0.328                   1.000905        112.7482
0.332                   1.001681        111.6501
0.336                   1.002154        110.5463
0.34                    1.002244        109.4451
0.344                   1.001937        108.3558
0.348                   1.001289        107.2873
0.352                   1.000413        106.2462
0.356                  0.9994634        105.2361
0.36                    0.998607        104.2566
0.364                  0.9979938        103.3035
0.368                  0.9977308        102.3693
0.372                  0.9978635        101.4445
0.376                  0.9983672        100.5197
0.38                   0.9991526        99.58669
0.384                    1.00008        98.64013
0.388                   1.000988        97.67848
0.392                   1.001716        96.70415
0.396                   1.002137        95.72298
0.4                      1.00218        94.74328
0.404                   1.001836        93.77427
0.408                   1.001166        92.82449
0.412                   1.000288        91.90044
0.416                  0.9993559        91.00522
0.42                   0.9985339        90.13811
0.424                  0.9979671        89.29453
0.428                  0.9977554        88.46686
0.432                  0.9979366        87.64578
0.436                  0.9984785        86.82182
0.44                   0.9992851        85.98723
0.444                   1.000214        85.13711
0.448                   1.001102        84.27047
0.452                   1.001791        83.39017
0.456                   1.002161        82.50249
0.46                    1.002147        81.61593
0.464                   1.001749        80.73981
0.468                   1.001037        79.88258
0.472                   1.000136        79.05038
0.476                  0.9992034         78.2459
0.48                   0.9984041        77.46791
0.484                  0.9978797        76.71134
0.488                   0.997724        75.96819
0.492                  0.9979654        75.22886
0.496                  0.9985614        74.48401
0.5                    0.9994071        73.72608
0.504                   1.000353        72.95067
0.508                   1.001231        72.15734
0.512                   1.001887        71.34959
0.516                   1.002202        70.53428
0.52                    1.002121        69.72031
0.524                   1.001657        68.91719
0.528                   1.000888         68.1333
0.532                   0.999949        67.37447
0.536                  0.9990057         66.6429
0.54                    0.998225        65.93668
0.544                  0.9977461        65.25006
0.548                  0.9976553         64.5745
0.552                  0.9979705        63.90006
0.556                  0.9986367         63.2173
0.56                   0.9995366         62.5189
0.564                   1.000511        61.80098
0.568                   1.001387        61.06381
0.572                   1.002008        60.31164
0.576                   1.002264        59.55202
0.58                    1.002106        58.79441
0.584                   1.001561         58.0486
0.588                   1.000722        57.32294
0.592                  0.9997357        56.62289
0.596                  0.9987763        55.95004
0.6                    0.9980145        55.30166
0.604                  0.9975874        54.67122
0.608                   0.997573        54.04942
0.612                  0.9979764         53.4259
0.616                  0.9987274        52.79107
0.62                   0.9996939        52.13789
0.624                   1.000705        51.46308
0.628                    1.00158         50.7677
0.632                   1.002163        50.05693
0.636                   1.002349        49.33917
0.64                    1.002101        48.62453
0.644                   1.001461        47.92312
0.648                   1.000539        47.24325
0.652                  0.9994956        46.58999
0.656                  0.9985162        45.96413
0.66                    0.997776        45.36206
0.664                  0.9974091         44.7762
0.668                  0.9974835        44.19646
0.672                  0.9979891         43.6119
0.676                  0.9988383        43.01282
0.68                   0.9998811        42.39249
0.684                   1.000933        41.74832
0.688                   1.001805        41.08235
0.692                   1.002342        40.40082
0.696                   1.002445        39.71309
0.7                     1.002091        39.03003
0.704                    1.00134        38.36212
0.708                   1.000321        37.71761
0.712                  0.9992123        37.10102
0.716                  0.9982111        36.51231
0.72                   0.9974973        35.94669
0.724                   0.997201        35.39549
0.728                  0.9973786         34.8476
0.732                  0.9980022        34.29152
0.736                   0.998963         33.7174
0.74                    1.000091         33.1189
0.744                   1.001187        32.49427
0.748                   1.002052        31.84667
0.752                   1.002532        31.18358
0.756                   1.002537        30.51548
0.76                    1.002059        29.85405
0.764                   1.001181        29.21016
0.768                   1.000052        28.59196
0.772                  0.9988712        28.00333
0.776                  0.9978489        27.44316
0.78                   0.9971694         26.9054
0.784                  0.9969578        26.38001
0.788                  0.9972566        25.85481
0.792                  0.9980164        25.31762
0.796                  0.9991045        24.75853
0.8                     1.000328        24.17167
0.804                    1.00147        23.55629
0.808                   1.002324        22.91685
0.812                   1.002734        22.26223
0.816                   1.002623        21.60418
0.82                    1.002003        20.95531
0.824                   1.000979        20.32687
0.828                  0.9997274        19.72683
0.832                  0.9984687        19.15831
0.836                  0.9974276        18.61895
0.84                   0.9967933        18.10117
0.844                  0.9966841        17.59344
0.848                   0.997125        17.08234
0.852                   0.998042        16.55498
0.856                  0.9992748         16.0014
0.86                    1.000605        15.41634
0.864                   1.001795        14.80024
0.868                    1.00263        14.15906
0.872                   1.002957         13.5033
0.876                    1.00271        12.84612
0.88                    1.001925        12.20114
0.884                   1.000735        11.58005
0.888                  0.9993457        10.99052
0.892                  0.9980021        10.43476
0.896                  0.9969453        9.908952
0.9                    0.9963687        9.403746
0.904                  0.9963817        8.905884
0.908                  0.9969888        8.400547
0.912                  0.9980874         7.87409
0.916                  0.9994849        7.316543
0.92                    1.000934        6.723427
0.924                   1.002175        6.096544
0.928                   1.002983        5.443634
0.932                   1.003207        4.777013
0.936                     1.0028        4.111473
0.94                    1.001824        3.461755
0.944                   1.000442        2.839987
0.948                  0.9988959        2.253502
0.952                   0.997458        1.703391
0.956                  0.9963876        1.184099
0.96                   0.9958823       0.6842407
0.964                  0.9960405       0.1885495
0.968                  0.9968423      -0.3193677
0.972                  0.9981511      -0.8540054
0.976                  0.9997378       -1.425286
0.98                    1.001321       -2.036762
0.984                   1.002615       -2.685004
0.988                   1.003387       -3.360228
0.992                   1.003489       -4.047992
0.996                   1.002891       -4.731645
1                       1.001689       -5.395159
1.004                   1.000084       -6.025913
1.008                  0.9983546       -6.616999
1.012                  0.9968083       -7.168652
1.016                  0.9957245       -7.688459
1.02                   0.9953051       -8.190218
1.024                  0.9956355       -8.691543
1.028                  0.9966666       -9.210666
1.032                  0.9982224       -9.763053
1.036                    1.00003       -10.35855
1.04                    1.001768        -10.9996
1.044                   1.003124       -11.68087
1.048                    1.00385       -12.39016
1.052                   1.003803       -13.11056
1.056                   1.002979       -13.82323
1.06                    1.001506       -14.51056
1.064                  0.9996339       -15.15938
1.068                  0.9976865       -15.76327
1.072                    0.99601         -16.324
1.076                  0.9949091        -16.8516
1.08                   0.9945916       -17.36274
1.084                  0.9951272       -17.87782
1.088                  0.9964328       -18.41732
1.092                  0.9982849       -18.99792
1.096                   1.000359       -19.62932
1.1                     1.002285       -20.31275
1.104                   1.003717       -21.04055
1.108                   1.004389       -21.79772
1.112                   1.004166       -22.56434
1.116                   1.003066       -23.31888
1.12                    1.001265       -24.04187
1.124                  0.9990646       -24.71929
1.128                  0.9968459       -25.34525
1.132                  0.9950038       -25.92332
1.136                   0.993875       -26.46644
1.14                   0.9936757       -26.99481
1.144                  0.9944588       -27.53237
1.148                  0.9961001       -28.10235
1.152                  0.9983188       -28.72296
1.156                   1.000726       -29.40399
1.16                    1.002893       -30.14513
1.164                   1.004429       -30.93608
1.168                   1.005044        -31.7583
1.172                   1.004608       -32.58819
1.176                    1.00317       -33.40085
1.18                    1.000957       -34.17431
1.184                  0.9983365       -34.89333
1.188                  0.9957632       -35.55237
1.192                  0.9936944       -36.15718
1.196                   0.992511       -36.72424
1.2                    0.9924444       -37.27821
1.204                  0.9935292       -37.84759
1.208                  0.9955928       -38.45935
1.212                  0.9982825       -39.13389
1.216                   1.001128       -39.88129
1.22                    1.003622        -40.6996
1.224                   1.005312        -41.5752
1.228                   1.005876       -42.48525
1.232                   1.005181       -43.40135
1.236                    1.00331       -44.29407
1.24                    1.000553       -45.13789
1.244                  0.9973659       -45.91555
1.248                  0.9942958       -46.62165
1.252                  0.9918893        -47.2643
1.256                  0.9905919        -47.8645
1.26                    0.990663       -48.45285
1.264                  0.9921215       -49.06408
1.268                  0.9947355       -49.73053
1.272                  0.9980601       -50.47603
1.276                   1.001514       -51.31153
1.28                    1.004483       -52.23329
1.284                   1.006422       -53.22371
1.288                   1.006955       -54.25421
1.292                   1.005935       -55.28991
1.296                   1.003481       -56.29495
1.3                    0.9999616       -57.23833
1.304                  0.9959489       -58.09929
1.308                  0.9921242       -58.87171
1.312                  0.9891651       -59.56633
1.316                   0.987622       -60.21001
1.32                   0.9878099       -60.84169
1.324                  0.9897403       -61.50545
1.328                  0.9931093       -62.24201
1.332                  0.9973458       -63.08104
1.336                    1.00171       -64.03572
1.34                    1.005422        -65.1007
1.344                   1.007795       -66.25323
1.348                   1.008349       -67.45695
1.352                   1.006901       -68.66753
1.356                   1.003597       -69.83919
1.36                   0.9989087       -70.93183
1.364                  0.9935708       -71.91797
1.368                  0.9884704       -72.78864
1.372                  0.9845005       -73.55698
1.376                  0.9823982       -74.25794
1.38                   0.9825973       -74.94332
1.384                  0.9851303       -75.67256
1.388                  0.9896056       -76.50124
1.392                  0.9952676        -77.4703
1.396                   1.001125       -78.59858
1.4                     1.006121       -79.88008
1.404                    1.00931       -81.28557
1.408                   1.010011       -82.76737
1.412                   1.007928       -84.26627
1.416                   1.003207       -85.71968
1.42                   0.9964452       -87.07062
1.424                  0.9886243       -88.27712
1.428                  0.9809794       -89.32134
1.432                  0.9748048       -90.21659
1.436                   0.971224       -91.00919
1.44                   0.9709599        -91.7736
1.444                  0.9741644       -92.59945
1.448                  0.9803537       -93.57409
1.452                  0.9884732       -94.76511
1.456                  0.9970717       -96.20817
1.46                    1.004543       -97.90227
1.464                   1.009381       -99.81178
1.468                   1.010415       -101.8728
1.472                   1.006985       -104.0018
1.476                  0.9990728       -106.1051
1.48                    0.987349       -108.0899
1.484                  0.9731515       -109.8775
1.488                  0.9583593       -111.4188
1.492                  0.9451534       -112.7121
1.496                  0.9356594       -113.8171
1.5                    0.9315104       -114.8584
1.504                  0.9334312       -116.0102
1.508                  0.9409697       -117.4649
1.512                  0.9524734       -119.3948
1.516                  0.9653118       -121.9233
1.52                   0.9762508       -125.1141
1.524                  0.9818608        -128.977
1.528                  0.9788685       -133.4827
1.532                  0.9644178       -138.5788
1.536                  0.9362412       -144.2027
1.54                   0.8927608       -150.2911
1.544                  0.8331335       -156.7856
1.548                   0.757261       -163.6374
1.552                  0.6657652       -170.8124
1.556                  0.5599416       -178.3022
1.56                   0.4416942        173.8465
1.564                  0.3134638        165.4208
1.568                  0.1782208        155.4088
1.572                 0.04145471        128.5292
1.576                  0.1044654       -24.68125
1.58                   0.2418143       -37.78947
1.584                  0.3741275       -46.83902
1.588                  0.4979266       -55.00009
1.592                   0.610491       -62.73763
1.596                  0.7096098       -70.16138
1.6                    0.7936392       -77.28573
1.604                  0.8615749       -84.08768
1.608                  0.9131114       -90.52454
1.612                  0.9486813       -96.54102
1.616                  0.9694677       -102.0737
1.62                   0.9773858       -107.0555
1.624                  0.9750187       -111.4236
1.628                  0.9654931       -115.1297
1.632                  0.9522716       -118.1566
1.636                   0.938846       -120.5351
1.64                   0.9283395        -122.358
1.644                  0.9230746       -123.7799
1.648                  0.9242258       -124.9976
1.652                  0.9316807       -126.2119
1.656                  0.9441821       -127.5876
1.66                   0.9596937       -129.2264
1.664                  0.9758658       -131.1601
1.668                   0.990465        -133.361
1.672                   1.001696       -135.7598
1.676                   1.008396       -138.2636
1.68                    1.010121       -140.7707
1.684                   1.007143       -143.1826
1.688                   1.000371       -145.4145
1.692                  0.9912148       -147.4048
1.696                  0.9813759       -149.1237
1.7                     0.972602         -150.58
1.704                  0.9664071       -151.8227
1.708                  0.9638209        -152.934
1.712                  0.9652146       -154.0147
1.716                  0.9702589       -155.1638
1.72                   0.9780194       -156.4593
1.724                   0.987165       -157.9454
1.728                  0.9962236        -159.629
1.732                   1.003831       -161.4836
1.736                    1.00893       -163.4577
1.74                    1.010902       -165.4848
1.744                   1.009629       -167.4934
1.748                   1.005484        -169.416
1.752                  0.9992657       -171.1982
1.756                  0.9920757       -172.8056
1.76                   0.9851469       -174.2302
1.764                  0.9796497       -175.4927
1.768                   0.976494       -176.6405
1.772                  0.9761746       -177.7391
1.776                  0.9786899       -178.8602
1.78                   0.9835568        179.9323
1.784                  0.9899165        178.5941
1.788                   0.996701        177.1067
1.792                   1.002822         175.478
1.796                   1.007347        173.7387
1.8                     1.009631        171.9355
1.804                     1.0094        170.1237
1.808                   1.006779         168.359
1.812                   1.002263          166.69
1.816                  0.9966389        165.1515
1.82                   0.9908612        163.7586
1.824                  0.9859021        162.5038
1.828                   0.982588        161.3573
1.832                  0.9814582        160.2714
1.836                  0.9826713        159.1897
1.84                   0.9859839        158.0571
1.844                  0.9908034        156.8308
1.848                   0.996304        155.4869
1.852                   1.001575        154.0232
1.856                   1.005776        152.4582
1.86                    1.008261        150.8264
1.864                   1.008679        149.1725
1.868                   1.007011        147.5445
1.872                   1.003571        145.9868
1.876                  0.9989529        144.5338
1.88                   0.9939379        143.2046
1.884                  0.9893698        141.9991
1.888                  0.9860154        140.8977
1.892                  0.9844311        139.8638
1.896                  0.9848663        138.8503
1.9                    0.9872219        137.8083
1.904                  0.9910719        136.6963
1.908                  0.9957478        135.4877
1.912                    1.00046        134.1743
1.916                   1.004434        132.7667
1.92                    1.007034        131.2913
1.924                   1.007861        129.7859
1.928                   1.006809         128.293
1.932                   1.004075        126.8539
1.936                   1.000128        125.5027
1.94                   0.9956347        124.2606
1.944                  0.9913519        123.1324
1.948                  0.9880021        122.1047
1.952                  0.9861492         121.148
1.956                  0.9860977        120.2213
1.96                   0.9878392        119.2801
1.964                  0.9910569         118.284
1.968                  0.9951866        117.2049
1.972                  0.9995211        116.0306
1.976                   1.003333        114.7667
1.98                    1.005996        113.4344
1.984                   1.007083        112.0664
1.988                    1.00643        110.7017
1.992                   1.004156        109.3795
1.996                    1.00065        108.1336
2                      0.9964996        106.9866
2.004                  0.9924067        105.9464
2.008                  0.9890648        105.0037
2.012                  0.9870416        104.1337
2.016                  0.9866777        103.2993
2.02                   0.9880248        102.4587
2.024                  0.9908373        101.5724
2.028                  0.9946195        100.6111
2.032                  0.9987171        99.56018
2.036                   1.002433        98.42168
2.04                    1.005143        97.21327
2.044                     1.0064        95.96461
2.048                   1.005999        94.71241
2.052                   1.004009        93.49479
2.056                   1.000764        92.34545
2.06                   0.9968049        91.28832
2.064                  0.9927995        90.33335
2.068                  0.9894284        89.47423
2.072                  0.9872683        88.68887
2.076                  0.9866884        87.94277
2.08                    0.987783        87.19524
2.084                  0.9903534        86.40707
2.088                  0.9939458        85.54768
2.092                  0.9979345        84.60047
2.096                   1.001633        83.56512
2.1                     1.004411          82.457
2.104                   1.005798        81.30399
2.108                   1.005555        80.14179
2.112                   1.003715        79.00836
2.116                   1.000576        77.93812
2.12                    0.996657        76.95646
2.124                  0.9926129        76.07526
2.128                  0.9891301         75.2903
2.132                  0.9868066        74.58119
2.136                  0.9860436        73.91446
2.14                   0.9869723        73.24942
2.144                  0.9894265        72.54577
2.148                  0.9929739        71.77115
2.152                  0.9969941         70.9068
2.156                   1.000789        69.95043
2.16                    1.003704        68.91593
2.164                   1.005231        67.83049
2.168                   1.005096        66.73011
2.172                   1.003298        65.65386
2.176                   1.000114        64.63806
2.18                    0.996056        63.71041
2.184                  0.9917947        62.88521
2.188                  0.9880477        62.16015
2.192                  0.9854582        61.51584
2.196                  0.9844777        60.91844
2.2                     0.985281        60.32547
2.204                  0.9877302        59.69377
2.208                  0.9913973        58.98757
2.212                  0.9956409        58.18488
2.216                  0.9997197        57.28106
2.22                    1.002919         56.2889
2.224                   1.004667        55.23603
2.228                   1.004632        54.16028
2.232                    1.00277        53.10385
2.236                   0.999341        52.10703
2.24                    0.994873        51.20192
2.244                  0.9900834         50.4068
2.248                  0.9857668        49.72209
2.252                  0.9826597        49.12901
2.256                  0.9813082        48.59168
2.26                   0.9819613        48.06306
2.264                  0.9845187         47.4935
2.268                  0.9885412        46.84023
2.272                  0.9933276        46.07513
2.276                  0.9980349        45.18944
2.28                    1.001822         44.1946
2.284                   1.003986         43.1198
2.288                   1.004078        42.00723
2.292                   1.001977        40.90586
2.296                  0.9979139        39.86442
2.3                    0.9924557        38.92414
2.304                  0.9864267        38.11161
2.308                  0.9807882        37.43301
2.312                   0.976482        36.87072
2.316                  0.9742611         36.3842
2.32                   0.9745411        35.91575
2.324                  0.9773056         35.4007
2.328                  0.9820913        34.77972
2.332                  0.9880579        34.00994
2.336                  0.9941276        33.07237
2.34                   0.9991602        31.97435
2.344                   1.002135        30.74765
2.348                   1.002311        29.44343
2.352                  0.9993445        28.12544