! TOUCHSTONE file generated by CST MICROWAVE STUDIO
! Date and time: Tue Jun  7 20:52:01 2022
! Project name: AppElm_antenne_patch_FR4.cst
! Parameters = {L=45; W=58.5; e=0.035; h=1.6; lambda=0.190476; ls=120; w0=1.6; w1=0.533333; ws=120; y0=20; y1=29.76}
! Header version: 2018
! Port assignment regex: !\s*Touchstone port\s*([0-9]+)\s*=\s*(CST MWS port|CST DS port)\s*([0-9]+|Zmin|Zmax)\s*\(\"(.*)\"\)(\s*mode\s*([0-9]+))?.*
! Touchstone port assignment:
! Touchstone port 1 = CST MWS port 1 ("")
# GHz S MA R 50
0                      0.9908939              -0
0.004                  0.9914669        -10.0291
0.008                  0.9931035       -19.97191
0.012                  0.9955694       -29.74626
0.016                  0.9985157       -39.27752
0.02                    1.001532       -48.50107
0.024                   1.004207        -57.3635
0.028                    1.00619       -65.82293
0.032                   1.007234       -73.84867
0.036                   1.007231       -81.42075
0.04                    1.006221       -88.52945
0.044                   1.004388       -95.17508
0.048                   1.002023       -101.3679
0.052                  0.9994878       -107.1278
0.056                  0.9971585        -112.484
0.06                   0.9953678       -117.4734
0.064                  0.9943565       -122.1382
0.068                  0.9942393       -126.5235
0.072                  0.9949892        -130.673
0.076                  0.9964482       -134.6262
0.08                   0.9983552       -138.4151
0.084                   1.000394       -142.0632
0.088                   1.002241       -145.5844
0.092                    1.00362       -148.9847
0.096                   1.004339       -152.2634
0.1                     1.004318       -155.4157
0.104                   1.003596       -158.4358
0.108                    1.00232        -161.319
0.112                   1.000721       -164.0643
0.116                  0.9990715       -166.6757
0.12                   0.9976454       -169.1631
0.124                  0.9966694       -171.5415
0.128                  0.9962898       -173.8295
0.132                  0.9965485       -176.0477
0.136                  0.9973807       -178.2152
0.14                   0.9986278         179.652
0.144                   1.000068        177.5432
0.148                   1.001455        175.4538
0.152                    1.00256        173.3853
0.156                   1.003207        171.3439
0.16                    1.003302        169.3393
0.164                   1.002845         167.382
0.168                   1.001928        165.4818
0.172                   1.000716        163.6453
0.176                  0.9994232        161.8748
0.18                   0.9982691        160.1676
0.184                  0.9974473        158.5159
0.188                  0.9970906        156.9085
0.192                  0.9972494        155.3316
0.196                  0.9978847         153.772
0.2                    0.9988771        152.2184
0.204                   1.000048        150.6633
0.208                   1.001193        149.1043
0.212                   1.002115        147.5438
0.216                    1.00266        145.9883
0.22                    1.002742        144.4472
0.224                   1.002352         142.931
0.228                   1.001564        141.4496
0.232                   1.000519        140.0098
0.236                  0.9993991        138.6152
0.24                    0.998398        137.2643
0.244                  0.9976867        135.9515
0.248                  0.9973841        134.6676
0.252                  0.9975376        133.4014
0.256                  0.9981141        132.1417
0.26                   0.9990078        130.8789
0.264                   1.000059         129.607
0.268                   1.001083        128.3242
0.272                   1.001903        127.0331
0.276                   1.002378        125.7402
0.28                     1.00243        124.4546
0.284                   1.002053        123.1861
0.288                   1.001316        121.9442
0.292                   1.000348        120.7355
0.296                  0.9993213        119.5635
0.3                    0.9984135        118.4269
0.304                  0.9977833        117.3207
0.308                  0.9975389        116.2364
0.312                  0.9977212        115.1637
0.316                  0.9982957        114.0923
0.32                   0.9991596        113.0136
0.324                    1.00016        111.9224
0.328                   1.001122        110.8172
0.332                   1.001878        109.7011
0.336                   1.002298        108.5805
0.34                     1.00231        107.4642
0.344                   1.001915        106.3622
0.348                   1.001183        105.2831
0.352                   1.000242        104.2336
0.356                  0.9992599        103.2165
0.36                   0.9984076        102.2306
0.364                  0.9978352        101.2708
0.368                  0.9976432        100.3286
0.372                  0.9978646        99.39426
0.376                  0.9984597        98.45779
0.38                   0.9993227        97.51118
0.384                   1.000301        96.54962
0.388                   1.001223        95.57236
0.392                   1.001927        94.58267
0.396                    1.00229         93.5873
0.4                     1.002248        92.59527
0.404                   1.001809        91.61621
0.408                    1.00105        90.65875
0.412                   1.000104        89.72905
0.416                   0.999136         88.8296
0.42                   0.9983175        87.95878
0.424                  0.9977922        87.11105
0.428                  0.9976532        86.27795
0.432                  0.9979249        85.44949
0.436                   0.998559          84.616
0.44                   0.9994429        83.76985
0.444                   1.000421        82.90673
0.448                   1.001319         82.0264
0.452                    1.00198        81.13274
0.456                   1.002286        80.23289
0.46                    1.002183         79.3361
0.464                   1.001688        78.45211
0.468                   1.000887        77.58935
0.472                  0.9999201        76.75362
0.476                  0.9989575         75.9469
0.48                   0.9981694          75.167
0.484                  0.9976959        74.40787
0.488                  0.9976219        73.66059
0.492                  0.9979615        72.91501
0.496                  0.9986553        72.16156
0.5                    0.9995809         71.3929
0.504                   1.000575        70.60526
0.508                   1.001461         69.7991
0.512                   1.002083        68.97891
0.516                    1.00233        68.15247
0.52                    1.002157        67.32942
0.524                   1.001594         66.5196
0.528                   1.000738        65.73138
0.532                  0.9997384        64.97014
0.536                  0.9987728        64.23725
0.54                   0.9980127        63.52981
0.544                  0.9975939        62.84104
0.548                  0.9975926        62.16153
0.552                  0.9980108        61.48078
0.556                  0.9987755        60.78922
0.56                   0.9997516        60.07988
0.564                   1.000766         59.3496
0.568                   1.001639        58.59959
0.572                   1.002215        57.83518
0.576                    1.00239        57.06487
0.58                    1.002132        56.29877
0.584                   1.001482        55.54698
0.588                   1.000554        54.81771
0.592                  0.9995093        54.11587
0.596                  0.9985334        53.44213
0.6                    0.9977998        52.79272
0.604                  0.9974405        52.16003
0.608                  0.9975214        51.53391
0.612                  0.9980299        50.90351
0.616                   0.998877        50.25924
0.62                   0.9999128         49.5945
0.624                   1.000953        48.90684
0.628                   1.001813        48.19838
0.632                   1.002337        47.47539
0.636                   1.002432        46.74717
0.64                    1.002076        46.02448
0.644                   1.001329        45.31761
0.648                   1.000322        44.63461
0.652                  0.9992292        43.97987
0.656                  0.9982464        43.35316
0.66                   0.9975491        42.74973
0.664                  0.9972642        42.16094
0.668                  0.9974452        41.57586
0.672                  0.9980629         40.9832
0.676                  0.9990095        40.37335
0.68                    1.000118        39.74019
0.684                   1.001191        39.08207
0.688                   1.002037        38.40215
0.692                   1.002505        37.70781
0.696                   1.002509        37.00929
0.7                     1.002044        36.31801
0.704                   1.001189        35.64451
0.708                   1.000092        34.99662
0.712                  0.9989477        34.37807
0.716                  0.9979591        33.78767
0.72                   0.9973047        33.21946
0.724                  0.9971047        32.66369
0.728                  0.9973987        32.10851
0.732                  0.9981375        31.54217
0.736                  0.9991922        30.95512
0.74                    1.000376        30.34176
0.744                   1.001478        29.70142
0.748                   1.002301        29.03846
0.752                   1.002696        28.36148
0.756                   1.002588        27.68182
0.76                    1.001992        27.01158
0.764                   1.001007        26.36156
0.768                  0.9998063        25.73932
0.772                  0.9985997         25.1478
0.776                  0.9976025        24.58466
0.78                   0.9969952         24.0426
0.784                  0.9968896        23.51057
0.788                  0.9973088        22.97574
0.792                  0.9981813        22.42584
0.796                  0.9993535        21.85141
0.8                     1.000617        21.24751
0.804                   1.001747        20.61459
0.808                   1.002538        19.95836
0.812                   1.002847        19.28881
0.816                   1.002612        18.61845
0.82                    1.001868        17.96016
0.824                   1.000742        17.32497
0.828                  0.9994285        16.72008
0.832                  0.9981598        16.14749
0.836                  0.9971629        15.60354
0.84                    0.996619        15.07936
0.844                  0.9966302        14.56246
0.848                     0.9972        14.03889
0.852                  0.9982308        13.49588
0.856                  0.9995418        12.92409
0.86                      1.0009        12.31938
0.864                   1.002064        11.68346
0.868                   1.002822        11.02362
0.872                   1.003035        10.35139
0.876                   1.002659          9.6806
0.88                    1.001754        9.024968
0.884                   1.000472        8.395755
0.888                  0.9990386        7.799708
0.892                  0.9977069         7.23776
0.896                  0.9967169        6.704686
0.9                    0.9962506        6.189884
0.904                  0.9963983        5.679207
0.908                  0.9971402        5.157515
0.912                  0.9983494        4.611458
0.916                  0.9998136         4.03193
0.92                    1.001273        3.415707
0.924                   1.002467        2.765998
0.928                   1.003178        2.091849
0.932                   1.003274        1.406569
0.936                   1.002729       0.7254502
0.94                     1.00163      0.06316372
0.944                   1.000164      -0.5687968
0.948                  0.9985861        -1.16421
0.952                  0.9971763       -1.723393
0.956                  0.9961889       -2.253353
0.96                   0.9958061       -2.766698
0.964                  0.9961041       -3.279448
0.968                  0.9970371        -3.80812
0.972                  0.9984439       -4.366679
0.976                   1.000077       -4.963975
0.98                    1.001645       -5.602153
0.984                   1.002868       -6.276313
0.988                    1.00352       -6.975387
0.992                   1.003477        -7.68406
0.996                   1.002734       -8.385353
1                       1.001412       -9.063524
1.004                  0.9997342       -9.706802
1.008                  0.9979927       -10.30959
1.012                  0.9964966       -10.87364
1.016                  0.9955173       -11.40804
1.02                   0.9952376       -11.92774
1.024                  0.9957174       -12.45095
1.028                  0.9968805       -12.99581
1.032                  0.9985264         -13.577
1.036                   1.000366       -14.20309
1.04                    1.002072       -14.87499
1.044                   1.003338       -15.58588
1.048                   1.003932       -16.32234
1.052                   1.003737       -17.06672
1.056                   1.002772       -17.80001
1.06                    1.001195       -18.50524
1.064                  0.9992726       -19.17023
1.068                  0.9973407       -19.79005
1.072                  0.9957436        -20.3681
1.076                  0.9947728       -20.91586
1.08                    0.994613        -21.4511
1.084                  0.9953061       -21.99456
1.088                  0.9967404       -22.56639
1.092                  0.9986694       -23.18214
1.096                   1.000754       -23.85014
1.1                     1.002625       -24.56987
1.104                   1.003945       -25.33231
1.108                   1.004468       -26.12123
1.112                   1.004086       -26.91615
1.116                   1.002847       -27.69572
1.12                     1.00095        -28.4412
1.124                  0.9987149        -29.1399
1.128                  0.9965302       -29.78743
1.132                  0.9947846       -30.38915
1.136                  0.9937971       -30.95937
1.14                   0.9937576       -31.51915
1.144                  0.9946888       -32.09255
1.148                  0.9964385       -32.70215
1.152                  0.9987049       -33.36485
1.156                    1.00109       -34.08882
1.16                    1.003168       -34.87202
1.164                   1.004562       -35.70272
1.168                   1.005009       -36.56145
1.172                   1.004406        -37.4243
1.176                   1.002831       -38.26676
1.18                    1.000536       -39.06783
1.184                   0.997903       -39.81378
1.188                  0.9953885       -40.50085
1.192                  0.9934389       -41.13642
1.196                  0.9924132        -41.7383
1.2                    0.9925131       -42.33181
1.204                  0.9937419       -42.94526
1.208                     0.9959       -43.60464
1.212                  0.9986173       -44.32884
1.216                   1.001418       -45.12616
1.22                    1.003805       -45.99297
1.224                   1.005345       -46.91437
1.228                   1.005744       -47.86681
1.232                   1.004899       -48.82189
1.236                   1.002921       -49.75089
1.24                    1.000121       -50.62951
1.244                   0.996965       -51.44222
1.248                  0.9939962        -52.1854
1.252                   0.991744       -52.86881
1.256                  0.9906272       -53.51453
1.26                   0.9908724       -54.15346
1.264                   0.992467       -54.81977
1.268                  0.9951549       -55.54446
1.272                  0.9984788       -56.34957
1.276                    1.00186       -57.24421
1.28                    1.004697       -58.22305
1.284                   1.006474       -59.26742
1.288                   1.006842       -60.34845
1.292                   1.005686        -61.4316
1.296                    1.00315       -62.48205
1.3                    0.9996196       -63.47031
1.304                  0.9956676       -64.37747
1.308                  0.9919647       -65.19914
1.312                  0.9891649       -65.94745
1.316                  0.9877863       -66.65002
1.32                   0.9881101       -67.34554
1.324                  0.9901189       -68.07693
1.328                  0.9934907       -68.88318
1.332                  0.9976516       -69.79192
1.336                   1.001874       -70.81452
1.34                    1.005401       -71.94433
1.344                   1.007578       -73.15803
1.348                    1.00796       -74.41946
1.352                    1.00639        -75.6852
1.356                   1.003036       -76.91097
1.36                    0.998377       -78.05852
1.364                  0.9931389       -79.10227
1.368                  0.9881862       -80.03494
1.372                  0.9843792       -80.87065
1.376                  0.9824172        -81.6444
1.38                   0.9826998       -82.40695
1.384                  0.9852366       -83.21589
1.388                    0.98963       -84.12442
1.392                  0.9951363       -85.17124
1.396                   1.000793       -86.37365
1.4                      1.00558       -87.72496
1.404                   1.008594       -89.19616
1.408                   1.009189       -90.74074
1.412                   1.007093       -92.30137
1.416                   1.002464       -93.81777
1.42                   0.9958886       -95.23539
1.424                  0.9883195       -96.51452
1.428                  0.9809476        -97.6389
1.432                  0.9750149       -98.62216
1.436                  0.9715931       -99.50949
1.44                   0.9713679       -100.3726
1.444                  0.9744771       -101.2975
1.448                  0.9804532        -102.368
1.452                  0.9882837       -103.6487
1.456                  0.9965783       -105.1743
1.46                    1.003797        -106.944
1.464                   1.008497       -108.9244
1.468                   1.009548       -111.0545
1.472                   1.006313       -113.2548
1.476                  0.9987615       -115.4359
1.48                   0.9875233       -117.5094
1.484                  0.9738597       -119.4004
1.488                  0.9595468       -121.0622
1.492                  0.9466485       -122.4928
1.496                  0.9371799        -123.748
1.5                    0.9327014       -124.9441
1.504                  0.9339254       -126.2454
1.508                  0.9404607       -127.8343
1.512                  0.9507789       -129.8773
1.516                  0.9624076       -132.4961
1.52                   0.9722771       -135.7572
1.524                  0.9771018       -139.6757
1.528                  0.9737207       -144.2285
1.532                  0.9593532       -149.3694
1.536                  0.9317708        -155.042
1.54                    0.889401       -161.1888
1.544                  0.8313778       -167.7587
1.548                  0.7575533       -174.7126
1.552                  0.6684802        177.9685
1.556                  0.5653722        170.2658
1.56                    0.450051        162.0759
1.564                  0.3249074        153.0447
1.568                  0.1930392        141.6989
1.572                 0.06159253        113.2268
1.576                 0.09046373       -24.56957
1.58                   0.2235925       -44.21669
1.584                  0.3540653       -54.75882
1.588                  0.4769209       -63.57678
1.592                  0.5892711       -71.69026
1.596                  0.6888591       -79.36525
1.6                    0.7740016       -86.67779
1.604                  0.8436363       -93.63494
1.608                  0.8973727       -100.2113
1.612                  0.9355294       -106.3632
1.616                  0.9591463       -112.0358
1.62                   0.9699694       -117.1691
1.624                  0.9703913       -121.7054
1.628                  0.9633391       -125.5996
1.632                  0.9520843       -128.8335
1.636                   0.939966       -131.4319
1.64                   0.9300269       -133.4758
1.644                  0.9246142        -135.104
1.648                  0.9250397       -136.4973
1.652                  0.9314202       -137.8462
1.656                  0.9427631       -139.3137
1.66                   0.9572773       -141.0074
1.664                  0.9727914       -142.9699
1.668                  0.9871681       -145.1861
1.672                  0.9986258       -147.5978
1.676                   1.005948       -150.1213
1.68                    1.008584       -152.6614
1.684                   1.006666        -155.124
1.688                   1.000944        -157.426
1.692                  0.9926707       -159.5044
1.696                   0.983415       -161.3253
1.7                    0.9748344       -162.8899
1.704                  0.9684175       -164.2373
1.708                  0.9652393       -165.4397
1.712                   0.965784       -166.5893
1.716                   0.969877        -167.781
1.72                   0.9767499       -169.0932
1.724                  0.9852143       -170.5752
1.728                  0.9938954       -172.2412
1.732                   1.001471       -174.0729
1.736                   1.006868       -176.0263
1.74                    1.009409       -178.0411
1.744                   1.008877          179.95
1.748                   1.005526         178.012
1.752                   1.000033        176.1996
1.756                  0.9933836        174.5497
1.76                   0.9867284        173.0753
1.764                  0.9811959        171.7624
1.768                  0.9777077        170.5715
1.772                  0.9768219        169.4437
1.776                  0.9786412         168.312
1.78                   0.9828058        167.1138
1.784                  0.9885755        165.8028
1.788                  0.9949758        164.3556
1.792                   1.000973        162.7743
1.796                   1.005644        161.0833
1.8                     1.008313        159.3237
1.804                   1.008642        157.5466
1.808                   1.006667        155.8049
1.812                   1.002783        154.1465
1.816                  0.9976789        152.6072
1.82                   0.9922318        151.2056
1.824                  0.9873637         149.939
1.828                  0.9838911        148.7834
1.832                  0.9823859        147.6971
1.836                  0.9830764         146.628
1.84                   0.9858118        145.5236
1.844                   0.990099        144.3405
1.848                  0.9951986        143.0521
1.852                   1.000261        141.6519
1.856                    1.00447        140.1533
1.86                    1.007175        138.5861
1.864                   1.007982        136.9906
1.868                    1.00681         135.412
1.872                   1.003892        133.8931
1.876                   0.999741        132.4685
1.88                   0.9950648        131.1593
1.884                  0.9906532        129.9688
1.888                  0.9872492         128.882
1.892                  0.9854197        127.8671
1.896                  0.9854583        126.8814
1.9                     0.987334        125.8789
1.904                  0.9907025        124.8188
1.908                  0.9949732         123.673
1.912                  0.9994181        122.4304
1.916                     1.0033        121.0977
1.92                    1.005992        119.6972
1.924                   1.007074        118.2626
1.928                   1.006396        116.8335
1.932                   1.004093        115.4492
1.936                   1.000566        114.1432
1.94                   0.9964119        112.9376
1.944                  0.9923347        111.8394
1.948                  0.9890231         110.839
1.952                  0.9870351        109.9109
1.956                  0.9866995        109.0182
1.96                   0.9880572        108.1192
1.964                  0.9908567        107.1753
1.968                  0.9946032        106.1579
1.972                  0.9986501         105.053
1.976                   1.002314        103.8632
1.98                    1.004987         102.606
1.984                   1.006238        101.3107
1.988                   1.005873        100.0132
1.992                   1.003966        98.75058
1.996                   1.000843        97.55526
2                      0.9970354        96.45018
2.004                  0.9931864        95.44457
2.008                  0.9899505        94.53208
2.012                  0.9878789        93.69122
2.016                  0.9873217        92.88883
2.02                   0.9883648        92.08607
2.024                  0.9908156         91.2456
2.028                  0.9942402        90.33847
2.032                  0.9980433        89.34902
2.036                   1.001574        88.27709
2.04                    1.004238        87.13727
2.044                   1.005591          85.956
2.048                   1.005412        84.76697
2.052                   1.003735        83.60587
2.056                   1.000841        82.50484
2.06                   0.9972156        81.48747
2.064                  0.9934722         80.5646
2.068                   0.990247        79.73208
2.072                  0.9880926        78.97085
2.076                  0.9873772        78.24992
2.08                   0.9882189        77.53188
2.084                  0.9904631         76.7798
2.088                  0.9937117        75.96413
2.092                  0.9973966        75.06775
2.096                    1.00088        74.08864
2.1                     1.003566        73.03953
2.104                   1.004995        71.94526
2.108                   1.004922        70.83856
2.112                   1.003349        69.75487
2.116                   1.000531        68.72679
2.12                   0.9969328        67.77895
2.124                  0.9931559        66.92376
2.128                  0.9898404         66.1587
2.132                  0.9875541        65.46613
2.136                  0.9866911        64.81591
2.14                   0.9873989        64.17062
2.144                  0.9895491        63.49256
2.148                  0.9927612        62.75065
2.152                  0.9964712        61.92603
2.156                   1.000032        61.01502
2.16                    1.002824        60.02914
2.164                   1.004359        58.99276
2.168                   1.004358        57.93889
2.172                   1.002799        56.90403
2.176                  0.9999159         55.9225
2.18                   0.9961726        55.02102
2.184                  0.9921849        54.21408
2.188                  0.9886229        53.50081
2.192                  0.9860965        52.86433
2.196                  0.9850451        52.27403
2.2                    0.9856553        51.69072
2.204                  0.9878223        51.07392
2.208                  0.9911675        50.38938
2.212                  0.9951045        49.61527
2.216                  0.9989428        48.74576
2.22                    1.002007        47.79147
2.224                   1.003746        46.77729
2.228                   1.003828        45.73816
2.232                   1.002189        44.71367
2.236                  0.9990531        43.74204
2.24                   0.9948993        42.85424
2.244                  0.9903927         42.0685
2.248                  0.9862794        41.38643
2.252                  0.9832606        40.79159
2.256                   0.981867        40.25117
2.26                   0.9823555        39.72139
2.264                  0.9846554        39.15537
2.268                  0.9883739          38.512
2.272                  0.9928628        37.76347
2.276                  0.9973294        36.90001
2.28                    1.000971        35.93106
2.284                   1.003109        34.88323
2.288                   1.003296        33.79598
2.292                   1.001393        32.71574
2.296                  0.9976012        31.68922
2.3                    0.9924421        30.75637
2.304                  0.9866906        29.94357
2.308                  0.9812614        29.25782
2.312                  0.9770604         28.6835
2.316                  0.9748219        28.18288
2.32                   0.9749646        27.70134
2.324                  0.9774958        27.17697
2.328                  0.9819926        26.55216
2.332                   0.987662        25.78454
2.336                  0.9934718        24.85434
2.34                   0.9983184        23.76723
2.344                   1.001203        22.55282
2.348                   1.001391           21.26
2.352                  0.9985283        19.95036