! TOUCHSTONE file generated by CST MICROWAVE STUDIO
! Date and time: Tue Jun  7 20:51:57 2022
! Project name: AppElm_antenne_patch_FR4.cst
! Parameters = {L=45; W=58.5; e=0.035; h=1.6; lambda=0.190476; ls=120; w0=1.6; w1=0.533333; ws=120; y0=20; y1=25}
! Header version: 2018
! Port assignment regex: !\s*Touchstone port\s*([0-9]+)\s*=\s*(CST MWS port|CST DS port)\s*([0-9]+|Zmin|Zmax)\s*\(\"(.*)\"\)(\s*mode\s*([0-9]+))?.*
! Touchstone port assignment:
! Touchstone port 1 = CST MWS port 1 ("")
# GHz S MA R 50
0                      0.9895717              -0
0.004                  0.9901997       -9.949464
0.008                  0.9919968       -19.81202
0.012                  0.9947149       -29.50498
0.016                  0.9979838       -38.95341
0.02                    1.001365       -48.09256
0.024                   1.004417       -56.86904
0.028                   1.006754       -65.24102
0.032                   1.008098       -73.17778
0.036                   1.008312       -80.65903
0.04                    1.007414       -87.67445
0.044                   1.005573        -94.2234
0.048                   1.003079       -100.3148
0.052                   1.000305       -105.9673
0.056                  0.9976503       -111.2086
0.06                   0.9954838       -116.0747
0.064                  0.9940908       -120.6077
0.068                   0.993633       -124.8531
0.072                  0.9941269       -128.8564
0.076                  0.9954474       -132.6594
0.08                   0.9973521       -136.2972
0.084                  0.9995241       -139.7963
0.088                   1.001623       -143.1736
0.092                   1.003337       -146.4372
0.096                   1.004429       -149.5877
0.1                     1.004765       -152.6209
0.104                   1.004336       -155.5299
0.108                   1.003244       -158.3085
0.112                   1.001693       -160.9531
0.116                  0.9999483       -163.4647
0.12                   0.9982937       -165.8499
0.124                  0.9969901       -168.1211
0.128                  0.9962318       -170.2953
0.132                  0.9961186       -172.3923
0.136                  0.9966427       -174.4321
0.14                   0.9976933       -176.4327
0.144                   0.999079       -178.4078
0.148                   1.000562        179.6347
0.152                   1.001898        177.6928
0.156                   1.002875        175.7703
0.16                     1.00335         173.875
0.164                   1.003261        172.0171
0.168                   1.002644        170.2072
0.172                   1.001616         168.454
0.176                    1.00036        166.7629
0.18                   0.9990895        165.1345
0.184                  0.9980161        163.5646
0.188                  0.9973129        162.0446
0.192                  0.9970862        160.5626
0.196                  0.9973607        159.1054
0.2                     0.998076        157.6605
0.204                  0.9990997        156.2178
0.208                   1.000251        154.7715
0.212                   1.001334        153.3204
0.216                   1.002168        151.8677
0.22                    1.002619        150.4204
0.224                   1.002619        148.9879
0.228                    1.00218          147.58
0.232                   1.001383        146.2056
0.236                    1.00037        144.8706
0.24                   0.9993159        143.5775
0.244                  0.9983999        142.3242
0.248                  0.9977752        141.1049
0.252                  0.9975421        139.9107
0.256                  0.9977334         138.731
0.26                   0.9983082        137.5555
0.264                  0.9991609         136.376
0.268                   1.000141        135.1873
0.272                   1.001079        133.9883
0.276                   1.001814        132.7818
0.28                    1.002225        131.5739
0.284                   1.002246        130.3732
0.288                   1.001878        129.1886
0.292                    1.00119        128.0283
0.296                   1.000302        126.8984
0.3                    0.9993703        125.8014
0.304                  0.9985542        124.7362
0.308                   0.997993        123.6978
0.312                  0.9977807        122.6786
0.316                  0.9979502        121.6694
0.32                   0.9984674         120.661
0.324                  0.9992391         119.646
0.328                   1.000129        118.6198
0.332                   1.000982        117.5813
0.336                   1.001651        116.5331
0.34                    1.002023        115.4811
0.344                   1.002036        114.4332
0.348                    1.00169        113.3977
0.352                   1.001049        112.3826
0.356                   1.000226        111.3934
0.36                   0.9993635        110.4327
0.364                  0.9986132        109.4993
0.368                  0.9981047         108.589
0.372                  0.9979257        107.6943
0.376                  0.9981057        106.8068
0.38                   0.9986111        105.9179
0.384                  0.9993522        105.0206
0.388                   1.000198        104.1108
0.392                   1.001002        103.1875
0.396                   1.001622        102.2537
0.4                     1.001953        101.3148
0.404                   1.001938        100.3788
0.408                   1.001581        99.45366
0.412                   1.000945        98.54702
0.416                   1.000142        97.66419
0.42                   0.9993119        96.80745
0.424                  0.9986011        95.97561
0.428                  0.9981335        95.16413
0.432                  0.9979912         94.3659
0.436                  0.9981982        93.57254
0.44                   0.9987176        92.77578
0.444                  0.9994572        91.96901
0.448                   1.000286        91.14836
0.452                    1.00106        90.31342
0.456                   1.001641        89.46718
0.46                    1.001929        88.61551
0.464                   1.001873        87.76614
0.468                   1.001482        86.92729
0.472                   1.000826        86.10622
0.476                   1.000019        85.30801
0.48                   0.9992025        84.53461
0.484                  0.9985209        83.78442
0.488                  0.9980945        83.05264
0.492                  0.9979992        82.33196
0.496                  0.9982522         81.6139
0.5                    0.9988088        80.89035
0.504                  0.9995711        80.15494
0.508                   1.000404        79.40422
0.512                    1.00116        78.63822
0.516                   1.001706        77.86042
0.52                    1.001945        77.07711
0.524                   1.001833        76.29626
0.528                   1.001389        75.52616
0.532                   1.000689        74.77401
0.536                  0.9998565        74.04459
0.54                   0.9990368        73.33936
0.544                  0.9983753        72.65626
0.548                  0.9979897        71.98992
0.552                   0.997949        71.33263
0.556                  0.9982615        70.67569
0.56                   0.9988725        70.01095
0.564                   0.999674         69.3323
0.568                   1.000524        68.63674
0.572                   1.001271        67.92491
0.576                   1.001782        67.20089
0.58                    1.001966        66.47156
0.584                   1.001787         65.7453
0.588                   1.001276        65.03062
0.592                    1.00052        64.33461
0.596                  0.9996529        63.66169
0.6                    0.9988268        63.01279
0.604                  0.9981899        62.38514
0.608                  0.9978564        61.77265
0.612                  0.9978879        61.16703
0.616                   0.998281        60.55917
0.62                   0.9989673        59.94091
0.624                  0.9998259        59.30641
0.628                   1.000705         58.6532
0.632                   1.001446        57.98268
0.636                   1.001919        57.29976
0.64                    1.002037        56.61204
0.644                   1.001775         55.9285
0.648                   1.001177        55.25788
0.652                   1.000348        54.60721
0.656                  0.9994311         53.9805
0.66                   0.9985904        53.37798
0.664                  0.9979763        52.79599
0.668                  0.9977001        52.22757
0.672                  0.9978138        51.66364
0.676                  0.9982995        51.09471
0.68                   0.9990726        50.51248
0.684                  0.9999964        49.91145
0.688                   1.000906        49.28986
0.692                   1.001639        48.64997
0.696                   1.002063         47.9977
0.7                     1.002098        47.34155
0.704                   1.001736        46.69113
0.708                   1.001036        46.05551
0.712                    1.00012        45.44157
0.716                  0.9991492        44.85279
0.72                   0.9982966        44.28853
0.724                  0.9977161        43.74405
0.728                  0.9975148        43.21129
0.732                  0.9977323        42.68033
0.736                  0.9983329        42.14112
0.74                   0.9992121        41.58531
0.744                   1.000214        41.00784
0.748                   1.001161        40.40779
0.752                   1.001881        39.78854
0.756                   1.002243        39.15718
0.76                    1.002179        38.52327
0.764                   1.001695        37.89719
0.768                   1.000872        37.28832
0.772                  0.9998534        36.70335
0.776                   0.998818        36.14509
0.78                   0.9979512        35.61182
0.784                  0.9974101        35.09754
0.788                  0.9972953        34.59292
0.792                  0.9976312        34.08702
0.796                  0.9983616        33.56922
0.8                    0.9993579        33.03119
0.804                   1.000443        32.46843
0.808                   1.001422        31.88104
0.812                   1.002117        31.27373
0.816                     1.0024        30.65496
0.82                    1.002214        30.03551
0.824                   1.001587        29.42654
0.828                   1.000624        28.83776
0.832                  0.9994918        28.27554
0.836                  0.9983922         27.7418
0.84                   0.9975223        27.23353
0.844                  0.9970417        26.74318
0.848                  0.9970419        26.25994
0.852                  0.9975283        25.77171
0.856                  0.9984184         25.2673
0.86                   0.9995563        24.73848
0.864                   1.000739        24.18147
0.868                   1.001755        23.59768
0.872                   1.002418        22.99337
0.876                   1.002605        22.37862
0.88                    1.002275        21.76558
0.884                    1.00148        21.16634
0.888                   1.000354        20.59083
0.892                  0.9990947        20.04503
0.896                  0.9979252        19.52977
0.9                    0.9970572        19.04045
0.904                  0.9966512         18.5677
0.908                  0.9967865        18.09904
0.912                  0.9974452        17.62111
0.916                  0.9985144        17.12212
0.92                   0.9998052        16.59406
0.924                   1.001087        16.03413
0.928                   1.002128        15.44527
0.932                   1.002737        14.83563
0.936                   1.002797        14.21713
0.94                    1.002289        13.60345
0.944                   1.001293        13.00765
0.948                  0.9999798        12.43988
0.952                  0.9985786        11.90547
0.956                  0.9973401        11.40389
0.96                   0.9964901        10.92857
0.964                  0.9961886        10.46801
0.968                  0.9964982        10.00774
0.972                  0.9973718        9.532985
0.976                  0.9986591        9.031369
0.98                    1.000133        8.495241
0.984                   1.001531        7.923053
0.988                   1.002598        7.319637
0.992                   1.003139        6.695351
0.996                   1.003046        6.064301
1                       1.002325        5.441934
1.004                   1.001093        4.842373
1.008                  0.9995609         4.27592
1.012                  0.9979976        3.747104
1.016                  0.9966837        3.253673
1.02                   0.9958606        2.786753
1.024                  0.9956851        2.332289
1.028                  0.9961991        1.873531
1.032                  0.9973196        1.394114
1.036                  0.9988522       0.8811093
1.04                    1.000525       0.3274249
1.044                   1.002036      -0.2669111
1.048                   1.003111      -0.8947595
1.052                   1.003546       -1.543115
1.056                    1.00325       -2.195325
1.06                     1.00226       -2.833908
1.064                   1.000737       -3.443566
1.068                  0.9989417       -4.013917
1.072                  0.9971901       -4.541529
1.076                  0.9957979       -5.030814
1.08                   0.9950232       -5.493531
1.084                  0.9950178        -5.94685
1.088                  0.9957962       -6.410287
1.092                  0.9972305       -6.902006
1.096                  0.9990715       -7.435607
1.1                     1.000993       -8.017403
1.104                   1.002649       -8.645316
1.108                   1.003736       -9.309456
1.112                   1.004047        -9.99354
1.116                   1.003508        -10.6779
1.12                    1.002194       -11.34256
1.124                   1.000323       -11.97083
1.128                  0.9982144        -12.5523
1.132                   0.996241       -13.08488
1.136                  0.9947609       -13.57567
1.14                   0.9940518       -14.03996
1.144                  0.9942576       -14.49876
1.148                  0.9953584       -14.97488
1.152                  0.9971704       -15.48876
1.156                  0.9993772       -16.05455
1.16                    1.001586       -16.67752
1.164                   1.003396       -17.35316
1.168                   1.004471       -18.06794
1.172                   1.004599       -18.80167
1.176                    1.00373       -19.53081
1.18                    1.001991       -20.23239
1.184                  0.9996646       -20.88797
1.188                  0.9971504       -21.48703
1.192                  0.9948921       -22.02928
1.196                  0.9933023       -22.52524
1.2                     0.992684       -22.99484
1.204                  0.9931717       -23.46402
1.208                  0.9947007       -23.95996
1.212                  0.9970155       -24.50597
1.216                  0.9997127       -25.11704
1.22                    1.002313       -25.79715
1.224                   1.004343       -26.53861
1.228                   1.005425       -27.32339
1.232                   1.005337       -28.12616
1.236                   1.004057       -28.91845
1.24                    1.001775       -29.67325
1.244                  0.9988633       -30.36968
1.248                  0.9958197       -30.99693
1.252                  0.9931845       -31.55687
1.256                  0.9914436       -32.06444
1.26                   0.9909356       -32.54565
1.264                  0.9917851       -33.03306
1.268                  0.9938698       -33.55973
1.272                  0.9968394        -34.1529
1.276                   1.000174       -34.82881
1.28                    1.003278       -35.58979
1.284                    1.00558       -36.42396
1.288                   1.006638       -37.30729
1.292                   1.006217       -38.20754
1.296                   1.004329       -39.08936
1.3                     1.001247       -39.91992
1.304                   0.997464       -40.67459
1.308                  0.9936202       -41.34173
1.312                  0.9903947        -41.9258
1.316                  0.9883848       -42.44783
1.32                   0.9879905        -42.9425
1.324                  0.9893293       -43.45221
1.328                  0.9922048       -44.01895
1.332                  0.9961339       -44.67619
1.336                   1.000429        -45.4426
1.34                     1.00432        -46.3187
1.344                   1.007086       -47.28708
1.348                   1.008183       -48.31539
1.352                   1.007334       -49.36142
1.356                   1.004592       -50.37954
1.36                    1.000338       -51.32775
1.364                  0.9952372       -52.17481
1.368                  0.9901422       -52.90662
1.372                  0.9859524       -53.53054
1.376                   0.983451        -54.0762
1.38                   0.9831515       -54.59168
1.384                  0.9851824       -55.13517
1.388                  0.9892452        -55.7637
1.392                  0.9946559       -56.52183
1.396                   1.000462       -57.43324
1.4                     1.005605       -58.49682
1.404                   1.009107       -59.68739
1.408                   1.010227       -60.96002
1.412                   1.008597       -62.25664
1.416                    1.00429       -63.51427
1.42                   0.9978406       -64.67402
1.424                  0.9901878       -65.69088
1.428                  0.9825517        -66.5431
1.432                  0.9762425       -67.23985
1.436                  0.9724266         -67.824
1.44                   0.9718882       -68.36791
1.444                  0.9748437       -68.96112
1.448                  0.9808628       -69.69264
1.452                  0.9889218       -70.63275
1.456                  0.9975726       -71.81995
1.46                     1.00519       -73.25532
1.464                   1.010236       -74.90407
1.468                   1.011504       -76.70194
1.472                   1.008308       -78.56399
1.476                   1.000623       -80.39445
1.48                   0.9891331       -82.09836
1.484                  0.9752164       -83.59519
1.488                  0.9608084       -84.83569
1.492                  0.9481508       -85.82001
1.496                  0.9394132       -86.61211
1.5                    0.9362327        -87.3422
1.504                  0.9392825          -88.19
1.508                  0.9480031       -89.35048
1.512                  0.9605953       -90.99422
1.516                  0.9742695       -93.23863
1.52                   0.9856452       -96.13832
1.524                  0.9911744       -99.69221
1.528                  0.9875032       -103.8587
1.532                  0.9717343       -108.5712
1.536                  0.9416001       -113.7495
1.54                    0.895562       -119.3056
1.544                   0.832858       -125.1447
1.548                  0.7535101       -131.1587
1.552                  0.6583081       -137.2084
1.556                  0.5487793       -143.0797
1.56                    0.427182       -148.3522
1.564                  0.2966785       -151.9105
1.568                  0.1628666       -149.0313
1.572                 0.06189499       -95.79303
1.576                  0.1487286       -30.31867
1.58                   0.2822644       -25.85613
1.584                  0.4135979       -29.12202
1.588                   0.536467       -34.34488
1.592                  0.6475417       -40.25484
1.596                  0.7444412       -46.39207
1.6                    0.8255172        -52.5282
1.604                  0.8898551        -58.5181
1.608                  0.9373081       -64.24992
1.612                  0.9685227       -69.62551
1.616                  0.9849403       -74.55308
1.62                   0.9887628       -78.94689
1.624                  0.9828695       -82.73263
1.628                  0.9706612       -85.85904
1.632                  0.9558098       -88.31436
1.636                  0.9418986       -90.14415
1.64                   0.9319764       -91.46244
1.644                  0.9281068       -92.44529
1.648                  0.9310564       -93.30228
1.652                  0.9402455         -94.233
1.656                  0.9539984       -95.38689
1.66                    0.969994       -96.84174
1.664                  0.9857649       -98.60439
1.668                  0.9991194       -100.6259
1.672                   1.008431       -102.8213
1.676                   1.012794       -105.0878
1.68                    1.012073       -107.3191
1.684                   1.006863       -109.4173
1.688                  0.9983723       -111.3035
1.692                  0.9882465       -112.9274
1.696                  0.9783225       -114.2764
1.7                    0.9703429       -115.3801
1.704                  0.9656673       -116.3083
1.708                  0.9650363       -117.1593
1.712                  0.9684528       -118.0402
1.716                  0.9752154       -119.0449
1.72                   0.9840911       -120.2373
1.724                   0.993572        -121.642
1.728                   1.002152       -123.2459
1.732                   1.008565       -125.0055
1.736                   1.011956       -126.8568
1.74                    1.011976       -128.7265
1.744                   1.008807       -130.5415
1.748                   1.003112       -132.2385
1.752                  0.9959281       -133.7725
1.756                  0.9885091       -135.1237
1.76                    0.982124       -136.3019
1.764                  0.9778464       -137.3463
1.768                  0.9763693       -138.3193
1.772                  0.9778863       -139.2949
1.776                  0.9820696       -140.3441
1.78                   0.9881486       -141.5213
1.784                  0.9950683       -142.8557
1.788                   1.001684       -144.3482
1.792                   1.006955       -145.9745
1.796                   1.010097        -147.691
1.8                     1.010691       -149.4425
1.804                   1.008731       -151.1706
1.808                   1.004608       -152.8219
1.812                  0.9990493       -154.3547
1.816                  0.9930035       -155.7463
1.82                   0.9874892       -156.9966
1.824                  0.9834283       -158.1294
1.828                  0.9814875       -159.1886
1.832                  0.9819627       -160.2312
1.836                  0.9847307       -161.3155
1.84                   0.9892823       -162.4909
1.844                   0.994824       -163.7887
1.848                   1.000426        -165.218
1.852                   1.005181        -166.766
1.856                   1.008351       -168.4016
1.86                    1.009468       -170.0813
1.864                   1.008406       -171.7558
1.868                   1.005381       -173.3777
1.872                    1.00092       -174.9075
1.876                  0.9957794       -176.3198
1.88                     0.99082       -177.6081
1.884                  0.9868716        -178.786
1.888                  0.9845896       -179.8859
1.892                  0.9843416        179.0466
1.896                  0.9861442        177.9608
1.9                     0.989664        176.8108
1.904                  0.9942852        175.5637
1.908                   0.999224        174.2045
1.912                   1.003665         172.738
1.916                   1.006896        171.1864
1.92                    1.008414        169.5852
1.924                   1.008003        167.9769
1.928                   1.005754        166.4051
1.932                   1.002054        164.9082
1.936                  0.9975227        163.5135
1.94                   0.9929142        162.2325
1.944                  0.9889979        161.0587
1.948                  0.9864271         159.968
1.952                  0.9856256        158.9222
1.956                  0.9867134        157.8762
1.96                   0.9894862        156.7862
1.964                  0.9934573        155.6176
1.968                  0.9979474        154.3513
1.972                   1.002206        152.9857
1.976                   1.005534        151.5363
1.98                      1.0074        150.0324
1.984                   1.007514        148.5119
1.988                   1.005873        147.0155
1.992                   1.002755        145.5811
1.996                  0.9986797        144.2377
2                      0.9943255        143.0006
2.004                  0.9904191        141.8689
2.008                  0.9876169        140.8245
2.012                  0.9863889        139.8348
2.016                  0.9869351        138.8585
2.02                   0.9891506        137.8532
2.024                  0.9926455         136.783
2.028                  0.9968182         135.625
2.032                   1.000963        134.3729
2.036                   1.004388         133.037
2.04                    1.006533        131.6417
2.044                   1.007049        130.2217
2.048                   1.005855        128.8159
2.052                   1.003149        127.4619
2.056                  0.9993752        126.1905
2.06                   0.9951575        125.0203
2.064                  0.9911988        123.9547
2.068                  0.9881648        122.9803
2.072                   0.986569        122.0685
2.076                  0.9866791        121.1806
2.08                   0.9884691        120.2747
2.084                  0.9916241        119.3133
2.088                  0.9955983        118.2703
2.092                  0.9997128        117.1352
2.096                   1.003273         115.914
2.1                     1.005684        114.6278
2.104                   1.006543        113.3086
2.108                   1.005703        111.9944
2.112                   1.003294        110.7236
2.116                  0.9997051        109.5287
2.12                    0.995524        108.4317
2.124                  0.9914449        107.4397
2.128                  0.9881542         106.543
2.132                   0.986212         105.716
2.136                  0.9859511        104.9216
2.14                   0.9874146        104.1174
2.144                  0.9903464        103.2637
2.148                  0.9942389        102.3311
2.152                  0.9984224        101.3049
2.156                   1.002183        100.1877
2.16                     1.00488        98.99752
2.164                   1.006053        97.76523
2.168                   1.005487        96.52893
2.172                   1.003254        95.32839
2.176                  0.9996982        94.19912
2.18                   0.9953901        93.16671
2.184                  0.9910355        92.24221
2.188                  0.9873623        91.41944
2.192                  0.9849957        90.67522
2.196                  0.9843451        89.97256
2.2                    0.9855266        89.26722
2.204                  0.9883381        88.51601
2.208                  0.9922944        87.68457
2.212                  0.9967136        86.75363
2.216                   1.000835        85.72166
2.22                    1.003948        84.60455
2.224                   1.005504        83.43249
2.228                   1.005209        82.24499
2.232                   1.003064        81.08509
2.236                  0.9993756        79.99283
2.24                   0.9947103        78.99926
2.244                  0.9898135        78.12079
2.248                  0.9854913        77.35559
2.252                  0.9824755        76.68241
2.256                  0.9812903        76.06334
2.26                   0.9821532        75.44999
2.264                  0.9849266        74.79241
2.268                  0.9891381        74.04839
2.272                  0.9940611        73.19117
2.276                  0.9988397        72.21361
2.28                    1.002631        71.12872
2.284                   1.004744        69.96699
2.288                   1.004743        68.77145
2.292                   1.002527        67.59141
2.296                  0.9983445        66.47556
2.3                    0.9927763        65.46474
2.304                  0.9866547        64.58502
2.308                   0.980944        63.84203
2.312                  0.9765838        63.21774
2.316                  0.9743235        62.67138
2.32                   0.9745755         62.1453
2.324                  0.9773239        61.57501
2.328                  0.9821105        60.90133
2.332                  0.9881048        60.08139
2.336                  0.9942401        59.09576
2.34                    0.999386        57.95105
2.344                   1.002526        56.67783
2.348                   1.002913        55.32593
2.352                   1.000188        53.95764