! TOUCHSTONE file generated by CST MICROWAVE STUDIO
! Date and time: Tue Jun  7 20:51:59 2022
! Project name: AppElm_antenne_patch_FR4.cst
! Parameters = {L=45; W=58.5; e=0.035; h=1.6; lambda=0.190476; ls=120; w0=1.6; w1=0.533333; ws=120; y0=20; y1=27.38}
! Header version: 2018
! Port assignment regex: !\s*Touchstone port\s*([0-9]+)\s*=\s*(CST MWS port|CST DS port)\s*([0-9]+|Zmin|Zmax)\s*\(\"(.*)\"\)(\s*mode\s*([0-9]+))?.*
! Touchstone port assignment:
! Touchstone port 1 = CST MWS port 1 ("")
# GHz S MA R 50
0                      0.9902707              -0
0.004                  0.9908706        -9.98952
0.008                  0.9925856       -19.89242
0.012                  0.9951746       -29.62625
0.016                  0.9982782       -39.11621
0.02                    1.001472       -48.29759
0.024                   1.004331         -57.117
0.028                   1.006486       -65.53255
0.032                   1.007675       -73.51355
0.036                   1.007777        -81.0399
0.04                    1.006821       -88.10157
0.044                   1.004984       -94.69842
0.048                   1.002556       -100.8401
0.052                  0.9999061        -106.546
0.056                  0.9974196       -111.8445
0.06                   0.9954475       -116.7721
0.064                   0.994252        -121.371
0.068                    0.99397       -125.6866
0.072                  0.9945954       -129.7634
0.076                  0.9959855       -133.6419
0.08                   0.9978888       -137.3557
0.084                  0.9999878       -140.9297
0.088                   1.001952       -144.3793
0.092                   1.003488       -147.7114
0.096                   1.004383        -150.926
0.1                     1.004531       -154.0185
0.104                   1.003947       -156.9827
0.108                   1.002759       -159.8131
0.112                   1.001184       -162.5075
0.116                  0.9994895       -165.0686
0.12                   0.9979557       -167.5047
0.124                  0.9968245       -169.8294
0.128                   0.996265       -172.0608
0.132                  0.9963465       -174.2188
0.136                  0.9970307       -176.3232
0.14                   0.9981823       -178.3907
0.144                  0.9995939        179.5665
0.148                   1.001023        177.5422
0.152                   1.002235        175.5363
0.156                   1.003036        173.5538
0.16                     1.00331        171.6035
0.164                   1.003027        169.6958
0.168                   1.002253        167.8408
0.172                   1.001131        166.0461
0.176                  0.9998573        164.3154
0.18                   0.9986505        162.6477
0.184                  0.9977117        161.0368
0.188                  0.9971924        159.4726
0.192                  0.9971692        157.9425
0.196                  0.9976335        156.4332
0.2                    0.9984937        154.9327
0.204                  0.9995931        153.4326
0.208                   1.000739        151.9288
0.212                   1.001736        150.4217
0.216                   1.002417        148.9166
0.22                    1.002673        147.4216
0.224                   1.002469        145.9467
0.228                   1.001849        144.5017
0.232                   1.000924        143.0944
0.236                  0.9998585        141.7293
0.24                   0.9988359         140.407
0.244                  0.9980304        139.1236
0.248                  0.9975776        137.8713
0.252                  0.9975491        136.6401
0.256                  0.9979427        135.4192
0.26                   0.9986842        134.1987
0.264                  0.9996396        132.9715
0.268                   1.000641        131.7342
0.272                   1.001514        130.4877
0.276                   1.002111        129.2367
0.28                    1.002332        127.9888
0.284                   1.002144        126.7534
0.288                   1.001583        125.5395
0.292                    1.00075        124.3546
0.296                  0.9997915        123.2032
0.3                    0.9988747         122.086
0.304                  0.9981577        120.9997
0.308                  0.9977642        119.9376
0.312                  0.9977594        118.8907
0.316                  0.9981408        117.8492
0.32                   0.9988383        116.8042
0.324                  0.9997277        115.7496
0.328                   1.000653        114.6823
0.332                   1.001452        113.6034
0.336                   1.001988        112.5177
0.34                    1.002169        111.4324
0.344                   1.001967        110.3565
0.348                   1.001418        109.2987
0.352                    1.00062        108.2659
0.356                  0.9997137        107.2624
0.36                   0.9988575        106.2888
0.364                   0.998201        105.3418
0.368                  0.9978587        104.4151
0.372                  0.9978897        103.4998
0.376                  0.9982868        102.5868
0.38                   0.9989793        101.6679
0.384                  0.9998442        100.7372
0.388                    1.00073        99.79222
0.392                    1.00148         98.8344
0.396                   1.001965        97.86856
0.4                     1.002101        96.90212
0.404                   1.001865        95.94376
0.408                   1.001298        95.00193
0.412                   1.000501        94.08342
0.416                   0.999613        93.19207
0.42                   0.9987904         92.3281
0.424                  0.9981779         91.4881
0.428                  0.9978836        90.66544
0.432                  0.9979592        89.85154
0.436                  0.9983911        89.03732
0.44                   0.9991028        88.21483
0.444                  0.9999685        87.37867
0.448                   1.000835        86.52688
0.452                   1.001551        85.66126
0.456                   1.001989        84.78703
0.46                    1.002073        83.91179
0.464                   1.001787        83.04434
0.468                   1.001181        82.19303
0.472                   1.000361        81.36436
0.476                  0.9994698        80.56179
0.48                   0.9986657        79.78516
0.484                  0.9980903        79.03052
0.488                   0.997846        78.29092
0.492                  0.9979768        77.55755
0.496                  0.9984598        76.82133
0.5                    0.9992099        76.07455
0.504                   1.000095        75.31213
0.508                   1.000957        74.53271
0.512                   1.001645        73.73862
0.516                   1.002036        72.93558
0.52                     1.00206        72.13166
0.524                   1.001711        71.33582
0.528                   1.001049        70.55646
0.532                    1.00019        69.79981
0.536                  0.9992835         69.0689
0.54                   0.9984908        68.36296
0.544                  0.9979525        67.67747
0.548                  0.9977655         67.0049
0.552                  0.9979643        66.33606
0.556                  0.9985147        65.66176
0.56                   0.9993201         64.9744
0.564                   1.000238        64.26937
0.568                   1.001105        63.54586
0.572                   1.001768        62.80693
0.576                   1.002108        62.05902
0.58                    1.002063        61.31071
0.584                   1.001638        60.57134
0.588                   1.000906        59.84932
0.592                  0.9999955        59.15062
0.596                  0.9990656        58.47779
0.6                     0.998282        57.82933
0.604                  0.9977852         57.1999
0.608                  0.9976653        56.58129
0.612                   0.997946         55.9638
0.616                  0.9985793        55.33801
0.62                    0.999454        54.69648
0.624                   1.000415        54.03508
0.628                   1.001292        53.35371
0.632                   1.001928        52.65631
0.636                   1.002209        51.95015
0.64                    1.002082        51.24449
0.644                   1.001566        50.54909
0.648                    1.00075        49.87241
0.652                  0.9997756        49.22018
0.656                   0.998816        48.59425
0.66                   0.9980416        47.99228
0.664                  0.9975924        47.40799
0.668                  0.9975513        46.83229
0.672                  0.9979284        46.25487
0.676                   0.998659        45.66605
0.68                   0.9996149        45.05858
0.684                   1.000626        44.42888
0.688                   1.001513        43.77775
0.692                   1.002116        43.11012
0.696                   1.002326        42.43424
0.7                     1.002101        41.76022
0.704                   1.001476        41.09825
0.708                   1.000561        40.45687
0.712                   0.999513        39.84143
0.716                   0.998519        39.25303
0.72                   0.9977566        38.68827
0.724                  0.9973646        38.13976
0.728                  0.9974162         37.5974
0.732                  0.9979059        37.05013
0.736                  0.9987494        36.48806
0.74                   0.9997977        35.90414
0.744                   1.000865        35.29551
0.748                    1.00176        34.66398
0.752                   1.002321        34.01567
0.756                   1.002444           33.36
0.76                    1.002103        32.70795
0.764                   1.001353        32.07027
0.768                   1.000323        31.45553
0.772                   0.999192        30.86858
0.776                  0.9981621         30.3096
0.78                   0.9974181        29.77397
0.784                  0.9970965        29.25299
0.788                  0.9972589        28.73535
0.792                  0.9978808        28.20926
0.796                  0.9988543        27.66452
0.8                     1.000007        27.09442
0.804                   1.001135        26.49696
0.808                   1.002035        25.87516
0.812                   1.002542        25.23654
0.816                   1.002563         24.5918
0.82                    1.002086        23.95298
0.824                    1.00119        23.33136
0.828                    1.00003         22.7355
0.832                  0.9988083        22.16964
0.836                   0.997743        21.63286
0.84                   0.9970268        21.11907
0.844                  0.9967925        20.61802
0.848                  0.9970874        20.11712
0.852                  0.9978639        19.60368
0.856                  0.9989872        19.06726
0.86                    1.000259        18.50161
0.864                   1.001451        17.90575
0.868                    1.00235        17.28414
0.872                    1.00279        16.64591
0.876                   1.002687        16.00326
0.88                    1.002051        15.36936
0.884                   1.000987        14.75609
0.888                  0.9996796        14.17193
0.892                  0.9983575        13.62036
0.896                   0.997258        13.09908
0.9                     0.996581        12.60033
0.904                  0.9964542        12.11206
0.908                  0.9969069        11.62017
0.912                  0.9978643        11.11103
0.916                  0.9991597        10.57401
0.92                    1.000564        10.00341
0.924                   1.001826         9.39952
0.928                   1.002717        8.768499
0.932                   1.003072        8.121336
0.936                    1.00282        7.471942
0.94                    1.001995        6.834773
0.944                   1.000736        6.222337
0.948                  0.9992592         5.64295
0.952                  0.9978255        5.099144
0.956                  0.9966925        4.587022
0.96                   0.9960682        4.096767
0.964                  0.9960724        3.614289
0.968                  0.9967128        3.123748
0.972                  0.9978823        2.610464
0.976                  0.9993765         2.06364
0.98                    1.000931        1.478327
0.984                   1.002267       0.8563096
0.988                   1.003141       0.2057697
0.992                   1.003389      -0.4601344
0.996                   1.002957       -1.125515
1                       1.001908       -1.774452
1.004                   1.000418        -2.39375
1.008                   0.998745       -2.975323
1.012                   0.997184       -3.517804
1.016                  0.9960168       -4.027032
1.02                     0.99546       -4.515233
1.024                  0.9956235       -4.998937
1.028                  0.9964884       -5.495998
1.032                  0.9979088       -6.022284
1.036                  0.9996364       -6.588735
1.04                    1.001364       -7.199372
1.044                   1.002782       -7.850591
1.048                    1.00363       -8.531819
1.052                   1.003746       -9.227334
1.056                   1.003094        -9.91892
1.06                    1.001775       -10.58894
1.064                   1.000009       -11.22338
1.068                  0.9981015       -11.81452
1.072                  0.9963899        -12.3623
1.076                  0.9951852       -12.87498
1.08                   0.9947127       -13.36765
1.084                  0.9950705       -13.85981
1.088                  0.9962075       -14.37172
1.092                  0.9979308       -14.92062
1.096                  0.9999387       -15.51766
1.1                     1.001874       -16.16568
1.104                   1.003388       -16.85892
1.108                   1.004202        -17.5839
1.112                   1.004154       -18.32178
1.116                   1.003233        -19.0516
1.12                    1.001583       -19.75358
1.124                  0.9994775       -20.41269
1.128                  0.9972814       -21.02153
1.132                  0.9953839       -21.58178
1.136                  0.9941312       -22.10452
1.14                   0.9937617       -22.60845
1.144                  0.9943585        -23.1167
1.148                  0.9958318       -23.65252
1.152                  0.9979307       -24.23497
1.156                   1.000288       -24.87537
1.16                    1.002484       -25.57526
1.164                   1.004122       -26.32615
1.168                   1.004895       -27.11108
1.172                   1.004645       -27.90741
1.176                   1.003388       -28.69056
1.18                    1.001319       -29.43807
1.184                  0.9987815       -30.13354
1.188                  0.9962129       -30.76978
1.192                  0.9940696       -31.35052
1.196                  0.9927453       -31.89039
1.2                    0.9924966       -32.41264
1.204                   0.993391       -32.94512
1.208                  0.9952908       -33.51504
1.212                  0.9978726       -34.14388
1.216                   1.000685       -34.84339
1.22                    1.003227       -35.61354
1.224                   1.005036       -36.44256
1.228                   1.005771       -37.30903
1.232                   1.005267       -38.18538
1.236                   1.003575       -39.04232
1.24                    1.000954       -39.85367
1.244                   0.997835       -40.60089
1.248                  0.9947532       -41.27678
1.252                  0.9922565       -41.88744
1.256                  0.9908064       -42.45204
1.26                   0.9906902        -42.9999
1.264                  0.9919611       -43.56528
1.268                  0.9944212       -44.18099
1.272                  0.9976533       -44.87212
1.276                   1.001092        -45.6514
1.28                    1.004125       -46.51702
1.284                   1.006195       -47.45309
1.288                   1.006903       -48.43232
1.292                   1.006072       -49.42047
1.296                   1.003788       -50.38161
1.3                     1.000391       -51.28397
1.304                  0.9964316       -52.10543
1.308                  0.9925818       -52.83805
1.312                  0.9895242       -53.49062
1.316                  0.9878274       -54.08833
1.32                   0.9878355       -54.66904
1.324                  0.9895934       -55.27655
1.328                  0.9928288       -55.95228
1.332                  0.9969944       -56.72725
1.336                   1.001362       -57.61645
1.34                    1.005149       -58.61628
1.344                   1.007654       -59.70548
1.348                   1.008375       -60.84871
1.352                   1.007098       -62.00198
1.356                   1.003941       -63.11926
1.36                    0.999353       -64.15961
1.364                  0.9940513       -65.09417
1.368                  0.9889185        -65.9124
1.372                  0.9848565       -66.62569
1.376                  0.9826217       -67.26767
1.38                   0.9826751       -67.88941
1.384                  0.9850783       -68.55041
1.388                  0.9894643       -69.30711
1.392                  0.9950931       -70.20181
1.396                   1.000977       -71.25489
1.4                     1.006053        -72.4617
1.404                   1.009357       -73.79397
1.408                   1.010187       -75.20446
1.412                   1.008225       -76.63384
1.416                   1.003598       -78.01902
1.42                   0.9968902       -79.30203
1.424                  0.9890788       -80.43978
1.428                  0.9814044        -81.4133
1.432                  0.9751763       -82.23482
1.436                  0.9715372       -82.95028
1.44                   0.9712312       -83.63423
1.444                  0.9744256       -84.37705
1.448                  0.9806437       -85.26724
1.452                  0.9888269       -86.37346
1.456                  0.9975101       -87.73215
1.46                    1.005067       -89.34252
1.464                   1.009973       -91.16853
1.468                   1.011038       -93.14544
1.472                   1.007598       -95.18842
1.476                   0.999634       -97.20234
1.48                   0.9878362       -99.09293
1.484                   0.973571       -100.7802
1.488                   0.958757       -102.2146
1.492                  0.9456176       -103.3955
1.496                  0.9363119       -104.3846
1.5                    0.9324871       -105.3102
1.504                  0.9348517       -106.3502
1.508                  0.9429058       -107.6998
1.512                   0.954926       -109.5321
1.516                  0.9682013        -111.969
1.52                   0.9794211        -115.071
1.524                   0.985093       -118.8437
1.528                  0.9818988       -123.2532
1.532                  0.9669571        -128.242
1.536                  0.9379937       -133.7419
1.54                   0.8934406       -139.6819
1.544                  0.8324819       -145.9932
1.548                  0.7550587       -152.6102
1.552                  0.6618434       -159.4696
1.556                  0.5541897       -166.5067
1.56                   0.4340597       -173.6429
1.564                  0.3039352        179.2567
1.568                  0.1667228        172.6416
1.572                 0.02607586        175.9373
1.576                   0.116528       -27.35399
1.58                    0.255498       -33.36174
1.584                  0.3885116       -40.41991
1.588                  0.5125074       -47.62182
1.592                  0.6248232       -54.77877
1.596                  0.7232767       -61.80022
1.6                    0.8062612       -68.61814
1.604                  0.8728258       -75.16882
1.608                  0.9227375       -81.38665
1.612                  0.9565191       -87.20202
1.616                  0.9754615       -92.54181
1.62                   0.9815996       -97.33236
1.624                  0.9776435       -101.5064
1.628                  0.9668423       -105.0143
1.632                   0.952761       -107.8406
1.636                  0.9389529       -110.0218
1.64                   0.9285387       -111.6596
1.644                  0.9237629       -112.9186
1.648                  0.9256523       -114.0031
1.652                  0.9339091       -115.1162
1.656                  0.9470943       -116.4188
1.66                   0.9630337       -118.0045
1.664                  0.9793018       -119.8951
1.668                  0.9936535       -122.0543
1.672                   1.004336       -124.4056
1.676                    1.01027       -126.8511
1.68                     1.01112       -129.2864
1.684                    1.00728        -131.612
1.688                  0.9997769       -133.7444
1.692                  0.9901228       -135.6249
1.696                  0.9800914       -137.2294
1.7                    0.9714533       -138.5738
1.704                  0.9656923       -139.7152
1.708                  0.9637526       -140.7426
1.712                  0.9658825        -141.761
1.716                  0.9716158       -142.8691
1.72                   0.9798973       -144.1413
1.724                  0.9893113       -145.6155
1.728                  0.9983499       -147.2916
1.732                   1.005662       -149.1365
1.736                   1.010243       -151.0934
1.74                     1.01156       -153.0925
1.744                   1.009594       -155.0607
1.748                   1.004825       -156.9308
1.752                  0.9981453       -158.6507
1.756                  0.9907262       -160.1901
1.76                    0.983836       -161.5468
1.764                  0.9786349       -162.7481
1.768                  0.9759787        -163.847
1.772                  0.9762719       -164.9136
1.776                  0.9794031       -166.0207
1.78                   0.9847835       -167.2304
1.784                  0.9914699       -168.5827
1.788                  0.9983472       -170.0908
1.792                   1.004321       -171.7409
1.796                   1.008488       -173.4973
1.8                     1.010267       -175.3096
1.804                   1.009466       -177.1205
1.808                   1.006297       -178.8738
1.812                   1.001342        179.4776
1.816                  0.9954539        177.9656
1.82                   0.9896286        176.6009
1.824                  0.9848432        175.3707
1.828                   0.981892          174.24
1.832                  0.9812492        173.1573
1.836                  0.9829878         172.064
1.84                   0.9867738        170.9058
1.844                  0.9919366        169.6424
1.848                  0.9975988         168.254
1.852                   1.002831        166.7435
1.856                   1.006804        165.1336
1.86                    1.008917        163.4627
1.864                   1.008879        161.7777
1.868                   1.006745        160.1275
1.872                   1.002902         158.556
1.876                  0.9980063        157.0956
1.88                    0.992882         155.762
1.884                  0.9883884        154.5511
1.888                  0.9852765        153.4391
1.892                  0.9840595        152.3856
1.896                   0.984922        151.3412
1.9                    0.9876909        150.2568
1.904                  0.9918721        149.0925
1.908                  0.9967454        147.8245
1.912                   1.001495        146.4485
1.916                   1.005345        144.9789
1.92                    1.007687        143.4455
1.924                   1.008167        141.8882
1.928                   1.006734        140.3511
1.932                   1.003647        138.8754
1.936                  0.9994302         137.494
1.94                    0.994791        136.2258
1.944                  0.9905085        135.0725
1.948                   0.987303        134.0173
1.952                  0.9857113        133.0275
1.956                  0.9859918        132.0597
1.96                   0.9880783        131.0685
1.964                  0.9915969        130.0143
1.968                  0.9959354        128.8708
1.972                   1.000356        127.6288
1.976                   1.004123        126.2968
1.98                    1.006623        124.8989
1.984                   1.007457        123.4702
1.988                   1.006504         122.051
1.992                   1.003933        120.6811
1.996                   1.000176        119.3936
2                      0.9958641        118.2098
2.004                  0.9917213        117.1351
2.008                  0.9884479        116.1577
2.012                  0.9865987        115.2498
2.016                  0.9864827        114.3724
2.02                   0.9881089        113.4823
2.024                  0.9911845        112.5401
2.028                  0.9951715        111.5175
2.032                  0.9993849        110.4019
2.036                   1.003112        109.1979
2.04                    1.005732        107.9254
2.044                   1.006814        106.6161
2.048                   1.006185        105.3084
2.052                   1.003949         104.041
2.056                    1.00048        102.8476
2.06                   0.9963553        101.7512
2.064                  0.9922674        100.7603
2.068                  0.9889095        99.86636
2.072                  0.9868549        99.04507
2.076                   0.986454        98.25989
2.08                   0.9877699        97.46875
2.084                  0.9905661        96.63191
2.088                  0.9943524        95.71935
2.092                  0.9984728        94.71577
2.096                   1.002222        93.62267
2.1                     1.004965        92.45736
2.104                   1.006239        91.24956
2.108                   1.005826        90.03648
2.112                   1.003787          88.857
2.116                   1.000451        87.74581
2.12                   0.9963687        86.72795
2.124                  0.9922217        85.81426
2.128                  0.9887125        84.99893
2.132                  0.9864424        84.25965
2.136                  0.9858036        83.56113
2.14                   0.9869051        82.86119
2.144                  0.9895517        82.11876
2.148                  0.9932789        81.30153
2.152                  0.9974383        80.39151
2.156                   1.001311        79.38774
2.16                    1.004231         78.3057
2.164                   1.005694        77.17423
2.168                   1.005437        76.03071
2.172                   1.003479        74.91526
2.176                   1.000123        73.86473
2.18                   0.9959101        72.90681
2.184                  0.9915343         72.0552
2.188                  0.9877326        71.30644
2.192                  0.9851567        70.63957
2.196                  0.9842559        70.01909
2.2                    0.9851906        69.40107
2.204                  0.9878002        68.74141
2.208                  0.9916305        68.00398
2.212                  0.9960135        67.16724
2.216                   1.000187        66.22745
2.22                    1.003422        65.19867
2.224                   1.005146        64.10991
2.228                    1.00503        63.00029
2.232                   1.003046        61.91305
2.236                  0.9994737        60.88918
2.24                   0.9948639        59.96101
2.244                   0.989957        59.14657
2.248                  0.9855664         58.4455
2.252                  0.9824405        57.83788
2.256                  0.9811278        57.28641
2.26                   0.9818701        56.74269
2.264                  0.9845512        56.15608
2.268                  0.9887116        55.48328
2.272                  0.9936274        54.69626
2.276                  0.9984368        53.78682
2.28                    1.002285        52.76726
2.284                   1.004462        51.66785
2.288                   1.004521        50.53181
2.292                   1.002346        49.40899
2.296                  0.9981831        48.34881
2.3                    0.9926139        47.39287
2.304                  0.9864798        46.56783
2.308                  0.9807576        45.87955
2.312                  0.9764006        45.30981
2.316                  0.9741685         44.8172
2.32                   0.9744763        44.34308
2.324                  0.9773017        43.82199
2.328                  0.9821714        43.19404
2.332                  0.9882334        42.41614
2.336                  0.9943981        41.46938
2.34                   0.9995163         40.3614
2.344                   1.002561        39.12431
2.348                   1.002787        37.80967
2.352                  0.9998493         36.4815