! TOUCHSTONE file generated by CST MICROWAVE STUDIO
! Date and time: Tue Jun 14 11:27:49 2022
! Project name: AppElm_antenne_patch_FR4.cst
! Parameters = {L=45; W=52.65; e=0.035; h=1.6; lambda=0.190476; ls=120; w0=2.54; w1=0.847; ws=120; y0=18; y1=23.8}
! Header version: 2018
! Port assignment regex: !\s*Touchstone port\s*([0-9]+)\s*=\s*(CST MWS port|CST DS port)\s*([0-9]+|Zmin|Zmax)\s*\(\"(.*)\"\)(\s*mode\s*([0-9]+))?.*
! Touchstone port assignment:
! Touchstone port 1 = CST MWS port 1 ("")
# GHz S MA R 50
0                      0.9906927              -0
0.004                  0.9912073       -9.093344
0.008                  0.9926871       -18.11703
0.012                  0.9949483       -27.00428
0.016                  0.9977127       -35.69367
0.02                    1.000644       -44.13098
0.024                   1.003391       -52.27019
0.028                   1.005634       -60.07376
0.032                   1.007119       -67.51269
0.036                    1.00769       -74.56595
0.04                    1.007305       -81.22033
0.044                   1.006041       -87.47013
0.048                   1.004083       -93.31725
0.052                   1.001697       -98.77118
0.056                     0.9992        -103.849
0.06                   0.9969182       -108.5751
0.064                  0.9951424       -112.9801
0.068                  0.9940902       -117.0995
0.072                  0.9938766       -120.9711
0.076                  0.9944995       -124.6326
0.08                    0.995842       -128.1188
0.084                  0.9976912       -131.4592
0.088                  0.9997705        -134.676
0.092                   1.001781       -137.7839
0.096                   1.003442       -140.7899
0.1                     1.004532       -143.6947
0.104                   1.004915       -146.4943
0.108                    1.00456        -149.182
0.112                   1.003543       -151.7512
0.116                    1.00203        -154.197
0.12                    1.000261       -156.5183
0.124                  0.9985049       -158.7192
0.128                  0.9970278        -160.809
0.132                  0.9960477       -162.8024
0.136                   0.995704       -164.7173
0.14                   0.9960355       -166.5734
0.144                  0.9969768       -168.3897
0.148                  0.9983691        -170.182
0.152                   0.999987        -171.961
0.156                   1.001574       -173.7315
0.16                    1.002885       -175.4926
0.164                    1.00372       -177.2376
0.168                   1.003957       -178.9566
0.172                   1.003569        179.3624
0.176                   1.002626        177.7308
0.18                    1.001285        176.1578
0.184                  0.9997646        174.6482
0.188                  0.9983096        173.2016
0.192                  0.9971534        171.8122
0.196                  0.9964797        170.4694
0.2                    0.9963922        169.1589
0.204                  0.9968986        167.8656
0.208                  0.9979094        166.5754
0.212                  0.9992535        165.2773
0.216                   1.000708        163.9655
0.22                    1.002032        162.6394
0.224                   1.003012        161.3041
0.228                    1.00349        159.9689
0.232                   1.003392        158.6459
0.236                   1.002737        157.3475
0.24                    1.001636         156.085
0.244                   1.000273        154.8661
0.248                  0.9988733        153.6939
0.252                  0.9976702        152.5659
0.256                  0.9968632        151.4746
0.26                   0.9965852        150.4083
0.264                  0.9968798        149.3533
0.268                  0.9976944        148.2958
0.272                  0.9988893        147.2248
0.276                   1.000261        146.1333
0.28                    1.001579        145.0197
0.284                   1.002621        143.8876
0.288                   1.003214        142.7456
0.292                   1.003261        141.6052
0.296                   1.002754        140.4792
0.3                      1.00178        139.3796
0.304                   1.000503        138.3153
0.308                  0.9991398        137.2908
0.312                  0.9979202        136.3054
0.316                  0.9970522        135.3528
0.32                   0.9966832        134.4225
0.324                  0.9968757        133.5015
0.328                  0.9975956        132.5762
0.332                  0.9987193        131.6352
0.336                   1.000053         130.671
0.34                     1.00137        129.6811
0.344                   1.002444        128.6686
0.348                   1.003095        127.6415
0.352                   1.003211        126.6112
0.356                   1.002772        125.5906
0.36                    1.001855        124.5919
0.364                   1.000614        123.6248
0.368                  0.9992616        122.6946
0.372                  0.9980306         121.801
0.376                   0.997133        120.9386
0.38                   0.9967246        120.0972
0.384                  0.9968767        119.2639
0.388                  0.9975632        118.4252
0.392                  0.9986658        117.5694
0.396                  0.9999938        116.6885
0.4                     1.001318        115.7799
0.404                   1.002411        114.8464
0.408                   1.003084        113.8959
0.412                   1.003221        112.9399
0.416                   1.002798        111.9914
0.42                    1.001887        111.0631
0.424                   1.000644        110.1648
0.428                  0.9992821        109.3022
0.432                  0.9980376        108.4753
0.436                  0.9971272        107.6787
0.44                   0.9967107        106.9021
0.444                  0.9968621        106.1326
0.448                  0.9975561        105.3563
0.452                  0.9986724        104.5614
0.456                   1.000017        103.7398
0.46                    1.001356        102.8888
0.464                   1.002457        102.0115
0.468                   1.003128        101.1158
0.472                   1.003252        100.2136
0.476                   1.002806        99.31836
0.48                    1.001865        98.44294
0.484                    1.00059        97.59743
0.488                  0.9992013         96.7874
0.492                  0.9979409         96.0128
0.496                  0.9970296        95.26787
0.5                    0.9966288        94.54211
0.504                  0.9968101        93.82197
0.508                  0.9975435        93.09341
0.512                  0.9987012        92.34433
0.516                   1.000081        91.56675
0.52                    1.001441        90.75825
0.524                   1.002543        89.92221
0.528                   1.003195        89.06723
0.532                    1.00328        88.20565
0.536                   1.002781        87.35137
0.54                    1.001782        86.51754
0.544                   1.000454        85.71432
0.548                  0.9990279        84.94713
0.552                   0.997753        84.21544
0.556                  0.9968539        83.51292
0.56                    0.996491         82.8284
0.564                  0.9967305        82.14775
0.568                  0.9975321         81.4565
0.572                   0.998756        80.74246
0.576                   1.000187        79.99785
0.58                    1.001575        79.22068
0.584                   1.002674        78.41503
0.588                   1.003291        77.59027
0.592                   1.003316        76.75944
0.596                    1.00274          75.937
0.6                     1.001661        75.13641
0.604                   1.000264        74.36779
0.608                  0.9987933        73.63614
0.612                   0.997507        72.94031
0.616                  0.9966335        72.27308
0.62                   0.9963297        71.62238
0.624                  0.9966528        70.97336
0.628                  0.9975479         70.3111
0.632                  0.9988589         69.6233
0.636                   1.000355        68.90253
0.64                    1.001773        68.14754
0.644                   1.002862        67.36327
0.648                   1.003429        66.56009
0.652                   1.003371        65.75195
0.656                   1.002695        64.95393
0.66                    1.001515        64.17977
0.664                   1.000034        63.43946
0.668                   0.998511        62.73743
0.672                   0.997216        62.07162
0.676                  0.9963799        61.43374
0.68                   0.9961542        60.81059
0.684                  0.9965828        60.18645
0.688                  0.9975928        59.54587
0.692                  0.9990072        58.87663
0.696                   1.000577        58.17177
0.7                     1.002025         57.4309
0.704                   1.003093        56.66016
0.708                   1.003592        55.87109
0.712                   1.003429        55.07867
0.716                   1.002628        54.29869
0.72                    1.001324        53.54516
0.724                  0.9997433         52.8278
0.728                  0.9981627        52.15033
0.732                  0.9968623        51.50954
0.736                  0.9960757        50.89579
0.74                   0.9959465        50.29461
0.744                   0.996502        49.68926
0.748                  0.9976469        49.06382
0.752                  0.9991802         48.4061
0.756                   1.000831        47.70983
0.76                    1.002306        46.97575
0.764                   1.003342        46.21136
0.768                   1.003754        45.42959
0.772                   1.003463        44.64656
0.776                   1.002513        43.87889
0.78                    1.001066         43.1408
0.784                  0.9993725        42.44166
0.788                  0.9977298         41.7842
0.792                    0.99643        41.16389
0.796                  0.9957077        40.56951
0.8                    0.9956962        39.98509
0.804                  0.9964025        39.39278
0.808                  0.9977045        38.77615
0.812                  0.9993729         38.1232
0.816                   1.001112        37.42849
0.82                    1.002613         36.6941
0.824                   1.003607        35.92912
0.828                   1.003913        35.14808
0.832                    1.00347        34.36844
0.836                   1.002349         33.6076
0.84                     1.00074        32.88002
0.844                  0.9989222        32.19456
0.848                  0.9972154        31.55283
0.852                  0.9959247        30.94866
0.856                  0.9952845        30.36903
0.86                   0.9954148        29.79626
0.864                  0.9962982        29.21128
0.868                  0.9977817        28.59715
0.872                  0.9996036        27.94214
0.876                   1.001441        27.24187
0.88                    1.002966        26.49997
0.884                   1.003906         25.7274
0.888                   1.004086        24.94047
0.892                   1.003469         24.1581
0.896                   1.002151        23.39863
0.9                     1.000359        22.67666
0.904                  0.9984034        22.00043
0.908                  0.9966299        21.37021
0.912                  0.9953569        20.77792
0.916                  0.9948176        20.20844
0.92                   0.9951157        19.64219
0.924                   0.996205        19.05876
0.928                  0.9978964        18.44065
0.932                  0.9998917        17.77656
0.936                   1.001837        17.06333
0.94                    1.003384        16.30643
0.944                   1.004255        15.51894
0.948                   1.004287         14.7192
0.952                   1.003465         13.9278
0.956                   1.001921        13.16406
0.96                   0.9999197        12.44274
0.964                  0.9978086        11.77132
0.968                  0.9959626        11.14846
0.972                  0.9947145         10.5639
0.976                  0.9942949        10.00009
0.98                   0.9947883        9.435282
0.984                  0.9961149        8.847527
0.988                  0.9980439        8.218803
0.992                   1.000235          7.5383
0.996                   1.002299        6.804326
1                       1.003866        6.024482
1.004                   1.004652        5.214258
1.008                   1.004508        4.394359
1.012                   1.003445        3.587245
1.016                   1.001636        2.813366
1.02                   0.9993911        2.087637
1.024                  0.9970999        1.416657
1.028                  0.9951702       0.7972133
1.032                  0.9939517       0.2164904
1.036                  0.9936722      -0.3458801
1.04                   0.9943927      -0.9141858
1.044                  0.9959945       -1.512113
1.048                  0.9981982       -2.158309
1.052                   1.000615       -2.862965
1.056                   1.002814       -3.626072
1.06                    1.004401       -4.437556
1.064                   1.005085       -5.279109
1.068                   1.004731       -6.127302
1.072                   1.003384        -6.95747
1.076                   1.001263       -7.747816
1.08                   0.9987284       -8.483222
1.084                  0.9962231       -9.158072
1.088                  0.9941928       -9.777815
1.092                  0.9930078       -10.35822
1.096                  0.9928926       -10.92308
1.1                    0.9938818        -11.4996
1.104                  0.9958099       -12.11369
1.108                  0.9983411        -12.7846
1.112                   1.001028       -13.52199
1.116                   1.003391       -14.32374
1.12                    1.005004       -15.17692
1.124                    1.00557       -16.05987
1.128                   1.004967       -16.94595
1.132                   1.003279       -17.80778
1.136                   1.000781       -18.62188
1.14                    0.997896       -19.37276
1.144                  0.9951273       -20.05599
1.148                  0.9929697       -20.67951
1.152                  0.9918196       -21.26279
1.156                  0.9918997       -21.83365
1.16                   0.9932132       -22.42311
1.164                  0.9955401       -23.05958
1.168                  0.9984747        -23.7635
1.172                   1.001499       -24.54362
1.176                   1.004072       -25.39561
1.18                    1.005729       -26.30301
1.184                   1.006157       -27.24015
1.188                   1.005254       -28.17632
1.192                   1.003148       -29.08076
1.196                   1.000178       -29.92774
1.2                    0.9968477        -30.7011
1.204                  0.9937369        -31.3976
1.208                  0.9914038       -32.02826
1.212                  0.9902812       -32.61707
1.216                  0.9905933         -33.197
1.22                   0.9923073       -33.80394
1.224                  0.9951362       -34.46982
1.228                  0.9985872       -35.21657
1.232                   1.002051       -36.05221
1.236                   1.004907       -36.96967
1.24                    1.006636        -37.9482
1.244                   1.006903       -38.95702
1.248                   1.005623       -39.96022
1.252                   1.002975       -40.92247
1.256                  0.9993835        -41.8148
1.26                   0.9954509       -42.61978
1.264                  0.9918618        -43.3354
1.268                   0.989262       -43.97637
1.272                  0.9881396       -44.57254
1.276                  0.9887269        -45.1638
1.28                   0.9909507       -45.79275
1.284                  0.9944384       -46.49636
1.288                  0.9985829       -47.29899
1.292                   1.002651       -48.20808
1.296                   1.005912       -49.21322
1.3                     1.007762        -50.2882
1.304                   1.007833       -51.39549
1.308                   1.006049       -52.49201
1.312                   1.002655       -53.53585
1.316                  0.9981813       -54.49306
1.32                   0.9933703       -55.34378
1.324                  0.9890538        -56.0869
1.328                  0.9860106       -56.74182
1.332                  0.9848179       -57.34641
1.336                  0.9857345       -57.95059
1.34                     0.98864       -58.60696
1.344                  0.9930483       -59.36043
1.348                  0.9981907       -60.23965
1.352                   1.003154       -61.25202
1.356                   1.007038       -62.38297
1.36                    1.009108       -63.59896
1.364                   1.008924        -64.8528
1.368                   1.006411       -66.09097
1.372                    1.00189       -67.26131
1.376                  0.9960407       -68.32134
1.38                     0.98981       -69.24613
1.384                  0.9842617       -70.03456
1.388                  0.9803939       -70.71208
1.392                  0.9789474       -71.32849
1.396                  0.9802489       -71.94982
1.4                    0.9841289       -72.64554
1.404                  0.9899385       -73.47473
1.408                  0.9966595       -74.47454
1.412                   1.003085       -75.65405
1.416                   1.008028       -76.99364
1.42                    1.010515       -78.44921
1.424                   1.009951       -79.95907
1.428                    1.00622       -81.45258
1.432                   0.999729       -82.85985
1.436                  0.9913742       -84.12204
1.44                   0.9824345       -85.20238
1.444                  0.9743846       -86.09598
1.448                  0.9686461       -86.83589
1.452                  0.9663111       -87.49211
1.456                  0.9679001       -88.16106
1.46                   0.9732193       -88.94691
1.464                  0.9813653       -89.93999
1.468                  0.9908757       -91.19902
1.472                  0.9999831        -92.7419
1.476                    1.00691       -94.54543
1.48                    1.010148       -96.55121
1.484                   1.008685       -98.67492
1.488                   1.002175       -100.8166
1.492                  0.9910234       -102.8718
1.496                  0.9764033       -104.7446
1.5                    0.9601634       -106.3639
1.504                  0.9446211       -107.7032
1.508                  0.9322116       -108.7991
1.512                  0.9250229       -109.7624
1.516                  0.9242965       -110.7703
1.52                   0.9300427       -112.0358
1.524                  0.9409131       -113.7649
1.528                  0.9543733       -116.1174
1.532                  0.9670951       -119.1883
1.536                  0.9754246       -123.0107
1.54                   0.9758022       -127.5723
1.544                  0.9650815       -132.8356
1.548                  0.9407406       -138.7563
1.552                  0.9010098       -145.2988
1.556                   0.844939       -152.4504
1.56                   0.7724305       -160.2402
1.564                  0.6842582       -168.7724
1.568                  0.5821165       -178.3013
1.572                  0.4688136        170.5761
1.576                  0.3490349         156.328
1.58                   0.2327876        134.3178
1.584                  0.1528635        90.86609
1.588                  0.1798165        33.56464
1.592                  0.2831913        2.070325
1.596                  0.4028712       -15.49312
1.6                    0.5203972       -28.04823
1.604                  0.6289925        -38.3568
1.608                  0.7249995       -47.40656
1.612                  0.8061662       -55.60291
1.616                  0.8712345       -63.11929
1.62                   0.9198348       -70.02079
1.624                  0.9524566       -76.31519
1.628                  0.9704245       -81.97806
1.632                  0.9758528       -86.96867
1.636                  0.9715525       -91.24432
1.64                   0.9608709       -94.77673
1.644                   0.947435        -97.5715
1.648                  0.9347889       -99.68763
1.652                  0.9259465       -101.2488
1.656                  0.9229448       -102.4378
1.66                   0.9265366       -103.4676
1.664                  0.9361478       -104.5392
1.668                  0.9501278       -105.8023
1.672                  0.9661982       -107.3349
1.676                  0.9819458       -109.1446
1.68                   0.9952394       -111.1838
1.684                   1.004513       -113.3695
1.688                   1.008921       -115.6015
1.692                   1.008377       -117.7766
1.696                    1.00351       -119.8012
1.7                    0.9955429       -121.6011
1.704                  0.9861044       -123.1317
1.708                  0.9769794       -124.3859
1.712                  0.9698263       -125.3979
1.716                  0.9658956       -126.2394
1.72                    0.965816       -127.0073
1.724                  0.9694994       -127.8038
1.728                  0.9761959       -128.7158
1.732                   0.984677       -129.7993
1.736                  0.9934927       -131.0727
1.74                    1.001238       -132.5184
1.744                   1.006774       -134.0913
1.748                   1.009386       -135.7282
1.752                   1.008853       -137.3589
1.756                   1.005464       -138.9161
1.76                   0.9999448        -140.344
1.764                  0.9933402       -141.6069
1.768                  0.9868444       -142.6945
1.772                   0.981601       -143.6252
1.776                  0.9785073       -144.4431
1.78                   0.9780572       -145.2109
1.784                  0.9802621       -145.9969
1.788                  0.9846654        -146.862
1.792                  0.9904481       -147.8484
1.796                  0.9965959       -148.9733
1.8                     1.002085       -150.2282
1.804                   1.006051       -151.5831
1.808                   1.007923        -152.993
1.812                    1.00749       -154.4058
1.816                   1.004926       -155.7699
1.82                    1.000746       -157.0423
1.824                  0.9957181       -158.1942
1.828                  0.9907379       -159.2168
1.832                  0.9866742       -160.1224
1.836                    0.98422       -160.9432
1.84                   0.9837713       -161.7255
1.844                  0.9853605       -162.5207
1.848                  0.9886613       -163.3755
1.852                  0.9930602       -164.3232
1.856                  0.9977789       -165.3786
1.86                    1.002016       -166.5366
1.864                   1.005084        -167.775
1.868                   1.006516       -169.0586
1.872                   1.006129       -170.3461
1.876                   1.004049       -171.5961
1.88                    1.000679       -172.7736
1.884                  0.9966283       -173.8555
1.888                  0.9926136       -174.8343
1.892                  0.9893328       -175.7196
1.896                   0.987345       -176.5372
1.9                    0.9869728        -177.324
1.904                  0.9882476        -178.121
1.908                  0.9909102       -178.9659
1.912                  0.9944671        -179.886
1.916                  0.9982859        179.1064
1.92                    1.001711         178.015
1.924                   1.004174        176.8578
1.928                   1.005289        175.6638
1.932                   1.004905        174.4671
1.936                   1.003125        173.3022
1.94                    1.000286        172.1982
1.944                  0.9968977        171.1743
1.948                   0.993556        170.2362
1.952                  0.9908414        169.3756
1.956                  0.9892168        168.5707
1.96                    0.988946        167.7908
1.964                  0.9900498        167.0015
1.968                  0.9923061        166.1716
1.972                  0.9952971        165.2785
1.976                  0.9984888         164.312
1.98                    1.001329        163.2755
1.984                   1.003339        162.1845
1.988                   1.004198        161.0637
1.992                   1.003784        159.9424
1.996                   1.002195          158.85
2                      0.9997265        157.8109
2.004                  0.9968183        156.8409
2.008                  0.9939819        155.9444
2.012                  0.9917093        155.1133
2.016                  0.9903876        154.3286
2.02                   0.9902312        153.5636
2.024                  0.9912444         152.789
2.028                  0.9932254        151.9784
2.032                  0.9958068        151.1129
2.036                  0.9985262        150.1845
2.04                    1.000908        149.1968
2.044                   1.002549        148.1637
2.048                   1.003181        147.1072
2.052                   1.002714        146.0527
2.056                   1.001247        145.0255
2.06                   0.9990488        144.0464
2.064                  0.9965109        143.1283
2.068                  0.9940786        142.2738
2.072                  0.9921734         141.475
2.076                  0.9911188        140.7144
2.08                    0.991084        139.9685
2.084                  0.9920539        139.2119
2.088                  0.9938361        138.4221
2.092                  0.9960994        137.5837
2.096                  0.9984353        136.6905
2.1                     1.000433        135.7468
2.104                    1.00175        134.7656
2.108                   1.002168        133.7666
2.112                   1.001628        132.7724
2.116                   1.000237        131.8049
2.12                   0.9982481        130.8815
2.124                  0.9960126        130.0124
2.128                  0.9939229        129.1986
2.132                    0.99234        128.4318
2.136                  0.9915305        127.6958
2.14                   0.9916207        126.9696
2.144                  0.9925733        126.2309
2.148                  0.9941998        125.4608
2.152                  0.9961952        124.6468
2.156                  0.9981967         123.785
2.16                   0.9998487        122.8801
2.164                   1.000864         121.945
2.168                   1.001072        120.9974
2.172                   1.000447        120.0574
2.176                  0.9991055        119.1439
2.18                   0.9972889        118.2711
2.184                  0.9953179        117.4468
2.188                  0.9935365        116.6701
2.192                  0.9922506        115.9323
2.196                  0.9916732        115.2182
2.2                     0.991888        114.5087
2.204                  0.9928349        113.7846
2.208                  0.9943243        113.0303
2.212                  0.9960739        112.2361
2.216                  0.9977613        111.4001
2.22                   0.9990825        110.5282
2.224                  0.9998043        109.6326
2.228                   0.999803        108.7298
2.232                  0.9990844        107.8375
2.236                  0.9977794        106.9715
2.24                   0.9961203        106.1431
2.244                  0.9943982        105.3574
2.248                  0.9929114        104.6118
2.252                  0.9919116        103.8972
2.256                  0.9915586        103.1988
2.26                   0.9918933        102.4999
2.264                  0.9928312         101.784
2.268                  0.9941812        101.0387
2.272                  0.9956821        100.2574
2.276                  0.9970514         99.4401
2.28                   0.9980365        98.59383
2.284                  0.9984588        97.73054
2.288                  0.9982427        96.86517
2.292                  0.9974277        96.01296
2.296                  0.9961585        95.18676
2.3                    0.9946583        94.39481
2.304                  0.9931875        93.63933
2.308                   0.991997        92.91609
2.312                  0.9912817        92.21521
2.316                  0.9911466        91.52304
2.32                    0.991588        90.82479
2.324                  0.9924969        90.10723
2.328                  0.9936812        89.36115
2.332                  0.9949027        88.58295
2.336                  0.9959221        87.77507
2.34                   0.9965423        86.94535
2.344                  0.9966427        86.10546
2.348                   0.996199        85.26866
2.352                  0.9952856        84.44753