! TOUCHSTONE file generated by CST MICROWAVE STUDIO
! Date and time: Tue Jun 14 11:27:50 2022
! Project name: AppElm_antenne_patch_FR4.cst
! Parameters = {L=45; W=55.575; e=0.035; h=1.6; lambda=0.190476; ls=120; w0=2.54; w1=0.847; ws=120; y0=18; y1=23.8}
! Header version: 2018
! Port assignment regex: !\s*Touchstone port\s*([0-9]+)\s*=\s*(CST MWS port|CST DS port)\s*([0-9]+|Zmin|Zmax)\s*\(\"(.*)\"\)(\s*mode\s*([0-9]+))?.*
! Touchstone port assignment:
! Touchstone port 1 = CST MWS port 1 ("")
# GHz S MA R 50
0                      0.9892402              -0
0.004                  0.9898566       -9.538177
0.008                  0.9916245       -18.99537
0.012                  0.9943129       -28.29435
0.016                  0.9975748       -37.36486
0.02                    1.000995       -46.14581
0.024                   1.004148       -54.58637
0.028                   1.006654        -62.6462
0.032                   1.008224       -70.29503
0.036                   1.008698       -77.51214
0.04                    1.008056       -84.28575
0.044                   1.006425        -90.6128
0.048                   1.004053       -96.49894
0.052                   1.001279       -101.9586
0.056                  0.9984856       -107.0149
0.06                   0.9960488       -111.6989
0.064                  0.9942833       -116.0485
0.068                   0.993401        -120.106
0.072                  0.9934831       -123.9151
0.076                   0.994471       -127.5178
0.08                   0.9961798       -130.9512
0.084                    0.99833       -134.2449
0.088                   1.000592       -137.4197
0.092                   1.002634       -140.4876
0.096                   1.004173       -143.4525
0.1                     1.005009       -146.3119
0.104                   1.005053       -149.0596
0.108                   1.004332        -151.688
0.112                   1.002988       -154.1905
0.116                   1.001246        -156.564
0.12                   0.9993852       -158.8105
0.124                  0.9976951       -160.9375
0.128                  0.9964301       -162.9584
0.132                  0.9957717       -164.8909
0.136                  0.9958027       -166.7551
0.14                   0.9964956       -168.5712
0.144                  0.9977202       -170.3571
0.148                  0.9992677       -172.1257
0.152                   1.000885       -173.8843
0.156                   1.002315        -175.634
0.16                    1.003339       -177.3701
0.164                   1.003808       -179.0836
0.168                   1.003662        179.2367
0.172                    1.00294        177.6025
0.176                    1.00177        176.0235
0.18                     1.00035        174.5057
0.184                  0.9989132        173.0504
0.188                   0.997691        171.6533
0.192                  0.9968773        170.3055
0.196                  0.9965964        168.9941
0.2                    0.9968831        167.7048
0.204                  0.9976794        166.4236
0.208                  0.9988441        165.1392
0.212                   1.000179        163.8443
0.216                   1.001463        162.5371
0.22                    1.002484        161.2207
0.224                   1.003081        159.9027
0.228                   1.003162        158.5936
0.232                    1.00272        157.3048
0.236                   1.001834        156.0472
0.24                    1.000657        154.8286
0.244                  0.9993863         153.653
0.248                  0.9982329        152.5196
0.252                  0.9973882        151.4225
0.256                  0.9969896        150.3521
0.26                   0.9970989        149.2965
0.264                  0.9976918        148.2431
0.268                  0.9986633        147.1813
0.272                  0.9998459        146.1038
0.276                   1.001038        145.0078
0.28                     1.00204        143.8952
0.284                   1.002686        142.7724
0.288                   1.002869        141.6491
0.292                   1.002563        140.5363
0.296                   1.001822        139.4447
0.3                     1.000775        138.3829
0.304                  0.9995983         137.356
0.308                  0.9984928        136.3643
0.312                  0.9976457        135.4036
0.316                  0.9971998        134.4658
0.32                   0.9972294        133.5399
0.324                  0.9977268        132.6143
0.328                  0.9986043        131.6785
0.332                  0.9997099         130.725
0.336                   1.000854        129.7505
0.34                     1.00184        128.7566
0.344                   1.002503        127.7488
0.348                    1.00273        126.7363
0.352                   1.002484        125.7299
0.356                   1.001809        124.7402
0.36                    1.000821        123.7761
0.364                  0.9996897         122.843
0.368                  0.9986093        121.9421
0.372                   0.997766        121.0696
0.376                  0.9973051         120.218
0.38                   0.9973057        119.3768
0.384                  0.9977673        118.5346
0.388                  0.9986093        117.6811
0.392                  0.9996851        116.8087
0.396                   1.000809        115.9139
0.4                     1.001787         114.998
0.404                    1.00245        114.0665
0.408                   1.002686        113.1284
0.412                   1.002454        112.1943
0.416                   1.001793         111.275
0.42                    1.000818        110.3796
0.424                   0.999697        109.5135
0.428                  0.9986237         108.678
0.432                   0.997785        107.8697
0.436                  0.9973274        107.0809
0.44                    0.997331        106.3014
0.444                  0.9977959        105.5196
0.448                  0.9986408        104.7252
0.452                  0.9997186        103.9107
0.456                   1.000842        103.0726
0.46                    1.001814        102.2122
0.464                   1.002467        101.3352
0.468                   1.002687        100.4507
0.472                   1.002434        99.56966
0.476                   1.001751        98.70298
0.48                    1.000755        97.85967
0.484                  0.9996195         97.0453
0.488                  0.9985406        96.26097
0.492                  0.9977078        95.50302
0.496                  0.9972678        94.76361
0.5                    0.9972988         94.0321
0.504                  0.9977963        93.29684
0.508                  0.9986737        92.54738
0.512                  0.9997776        91.77617
0.516                   1.000914        90.98008
0.52                    1.001884        90.16071
0.524                   1.002517        89.32419
0.528                   1.002701        88.48006
0.532                   1.002402        87.63959
0.536                    1.00167        86.81393
0.54                    1.000629        86.01212
0.544                  0.9994618         85.2396
0.548                   0.998371         84.4971
0.552                   0.997549        83.78048
0.556                  0.9971419        83.08132
0.56                   0.9972232        82.38848
0.564                  0.9977802        81.68999
0.568                  0.9987159        80.97524
0.572                  0.9998661        80.23687
0.576                   1.001028         79.4721
0.58                    1.001998         78.6831
0.584                   1.002602         77.8767
0.588                   1.002735        77.06304
0.592                   1.002369        76.25391
0.596                   1.001565        75.46076
0.6                     1.000462        74.69261
0.604                  0.9992509        73.95462
0.608                  0.9981456        73.24696
0.612                  0.9973417        72.56473
0.616                  0.9969835        71.89876
0.62                   0.9971368         71.2372
0.624                  0.9977771        70.56761
0.628                  0.9987929        69.87931
0.632                   1.000006        69.16513
0.636                   1.001201        68.42284
0.64                    1.002169        67.65545
0.644                   1.002735        66.87062
0.648                   1.002799        66.07933
0.652                   1.002344          65.294
0.656                   1.001448        64.52639
0.66                    1.000264        63.78553
0.664                  0.9989999        63.07608
0.668                  0.9978783        62.39748
0.672                  0.9970998        61.74385
0.676                   0.996805        61.10506
0.68                   0.9970498        60.46838
0.684                  0.9977939        59.82087
0.688                  0.9989076        59.15168
0.692                   1.000195        58.45405
0.696                   1.001427        57.72648
0.7                     1.002386        56.97296
0.704                     1.0029        56.20224
0.708                   1.002874        55.42629
0.712                   1.002309        54.65829
0.716                   1.001298        53.91032
0.72                    1.000017        53.19128
0.724                  0.9986892        52.50526
0.728                  0.9975505        51.85076
0.732                  0.9968052         51.2207
0.736                  0.9965891        50.60375
0.74                   0.9969447        49.98617
0.744                  0.9978121        49.35446
0.748                  0.9990396        48.69769
0.752                   1.000411        48.00959
0.756                   1.001681        47.28957
0.76                    1.002624        46.54284
0.764                    1.00307        45.77943
0.768                   1.002934        45.01248
0.772                   1.002234        44.25597
0.776                   1.001088        43.52234
0.78                   0.9996933         42.8203
0.784                  0.9982952         42.1532
0.788                  0.9971419        41.51834
0.792                  0.9964411        40.90727
0.796                  0.9963222        40.30717
0.8                    0.9968105        39.70325
0.804                  0.9978235        39.08133
0.808                  0.9991829         38.4305
0.812                   1.000648         37.7451
0.816                   1.001958        37.02568
0.82                    1.002878        36.27888
0.824                   1.003239        35.51623
0.828                   1.002971        34.75219
0.832                   1.002115        34.00163
0.836                   1.000813        33.27735
0.84                   0.9992921        32.58777
0.844                  0.9978189        31.93531
0.848                  0.9966564        31.31586
0.852                  0.9960153        30.71929
0.856                  0.9960156         30.1312
0.86                   0.9966628        29.53548
0.864                  0.9978463         28.9173
0.868                   0.999358        28.26583
0.872                    1.00093        27.57619
0.876                   1.002281        26.85028
0.88                    1.003168        26.09642
0.884                   1.003428        25.32788
0.888                   1.003006        24.56058
0.892                   1.001968        23.81042
0.896                   1.000489        23.09053
0.9                    0.9988262        22.40892
0.904                  0.9972727        21.76691
0.908                  0.9961069         21.1587
0.912                  0.9955423        20.57222
0.916                  0.9956867        19.99121
0.92                   0.9965213        19.39813
0.924                  0.9979029        18.77746
0.928                  0.9995885         18.1185
0.932                   1.001279        17.41735
0.936                   1.002672        16.67752
0.94                    1.003515        15.90928
0.944                   1.003652        15.12788
0.948                   1.003047        14.35094
0.952                   1.001797        13.59547
0.956                   1.000114        12.87494
0.96                   0.9982898        12.19685
0.964                  0.9966473        11.56118
0.968                  0.9954829        10.96017
0.972                  0.9950114        10.37947
0.976                  0.9953261         9.80066
0.98                   0.9963793        9.204603
0.984                  0.9979895        8.575004
0.988                  0.9998735        7.901411
0.992                   1.001696        7.181088
0.996                   1.003131        6.419438
1                       1.003917        5.629019
1.004                   1.003903        4.827363
1.008                   1.003081        4.034029
1.012                    1.00158        3.267308
1.016                   0.999656        2.541051
1.02                   0.9976429        1.862122
1.024                  0.9958977        1.228914
1.028                  0.9947366       0.6313297
1.032                  0.9943762      0.05235608
1.036                  0.9948918      -0.5289466
1.04                   0.9962013       -1.133587
1.044                  0.9980786        -1.77872
1.048                   1.000193       -2.474488
1.052                   1.002167       -3.222226
1.056                   1.003646       -4.014296
1.06                    1.004359        -4.83547
1.064                   1.004164       -5.665525
1.068                    1.00308        -6.48262
1.072                    1.00128       -7.266955
1.076                  0.9990681       -8.004222
1.08                   0.9968299       -8.688291
1.084                  0.9949622       -9.322652
1.088                  0.9938056       -9.920211
1.092                  0.9935781       -10.50111
1.096                  0.9943344       -11.08938
1.1                    0.9959512       -11.70825
1.104                  0.9981487       -12.37588
1.108                   1.000539       -13.10212
1.112                   1.002696       -13.88656
1.116                    1.00423       -14.71899
1.12                    1.004855       -15.58091
1.124                   1.004443       -16.44892
1.128                   1.003042       -17.29839
1.132                   1.000878       -18.10764
1.136                  0.9983165       -18.86174
1.14                   0.9958015        -19.5554
1.144                  0.9937815       -20.19433
1.148                  0.9926272        -20.7948
1.152                  0.9925606       -21.38095
1.156                  0.9936114       -21.98048
1.16                    0.995607       -22.61947
1.164                  0.9982019       -23.31744
1.168                   1.000938       -24.08379
1.172                   1.003328       -24.91623
1.176                   1.004936       -25.80125
1.18                    1.005461       -26.71653
1.184                   1.004782       -27.63461
1.188                    1.00299       -28.52737
1.192                   1.000369       -29.37066
1.196                  0.9973614       -30.14859
1.2                    0.9944885       -30.85671
1.204                  0.9922641       -31.50346
1.208                  0.9911002       -32.10929
1.212                  0.9912266       -32.70337
1.216                  0.9926444       -33.31825
1.22                   0.9951201       -33.98374
1.224                  0.9982257       -34.72125
1.228                   1.001413       -35.53989
1.232                   1.004112       -36.43498
1.236                    1.00583       -37.38906
1.24                    1.006236       -38.37486
1.244                   1.005221       -39.35973
1.248                   1.002918       -40.31085
1.252                  0.9996925        -41.2006
1.256                  0.9960821       -42.01151
1.26                    0.992712       -42.73989
1.264                  0.9901866       -43.39747
1.268                  0.9889778       -44.01017
1.272                  0.9893324       -44.61386
1.276                  0.9912192       -45.24781
1.28                   0.9943274       -45.94713
1.284                  0.9981193        -46.7361
1.288                   1.001926        -47.6238
1.292                   1.005062        -48.6027
1.296                    1.00695       -49.65024
1.3                     1.007212       -50.73257
1.304                   1.005744       -51.80994
1.308                   1.002736       -52.84283
1.312                  0.9986512       -53.79838
1.316                  0.9941628       -54.65622
1.32                   0.9900426       -55.41311
1.324                  0.9870297       -56.08485
1.328                  0.9856924       -56.70484
1.332                  0.9863139       -57.31863
1.336                  0.9888277       -57.97546
1.34                   0.9928201       -58.71873
1.344                  0.9975998       -59.57759
1.348                    1.00232       -60.56179
1.352                   1.006124       -61.66031
1.356                   1.008296       -62.84369
1.36                    1.008378       -64.06885
1.364                   1.006254       -65.28555
1.368                   1.002179       -66.44395
1.372                  0.9967558       -67.50237
1.376                  0.9908541        -68.4349
1.38                   0.9854739       -69.23744
1.384                  0.9815765         -69.931
1.388                  0.9799021       -70.56002
1.392                  0.9808168       -71.18547
1.396                  0.9842225       -71.87344
1.4                    0.9895593        -72.6818
1.404                  0.9958989       -73.64915
1.408                   1.002107       -74.78787
1.412                   1.007038       -76.08294
1.416                   1.009727        -77.4951
1.42                     1.00955       -78.96717
1.424                   1.006332       -80.43213
1.428                   1.000396       -81.82226
1.432                  0.9925439       -83.07926
1.436                  0.9839626       -84.16467
1.44                   0.9760534       -85.06947
1.444                  0.9702007        -85.8206
1.448                   0.967508       -86.48087
1.452                  0.9685581       -87.14022
1.456                  0.9732601       -87.89868
1.46                   0.9808323       -88.84592
1.464                  0.9899269        -90.0434
1.468                  0.9988619       -91.51411
1.472                   1.005903       -93.24092
1.476                   1.009538       -95.17146
1.48                    1.008709       -97.22662
1.484                   1.002982       -99.31039
1.488                  0.9926535       -101.3207
1.492                  0.9787666        -103.162
1.496                  0.9630453       -104.7606
1.5                    0.9477046       -106.0837
1.504                  0.9351287       -107.1579
1.508                  0.9274283       -108.0816
1.512                  0.9259512       -109.0193
1.516                  0.9308826       -110.1758
1.52                   0.9410777       -111.7549
1.524                  0.9541863       -113.9194
1.528                  0.9670097       -116.7703
1.532                  0.9759524       -120.3457
1.536                  0.9774448       -124.6352
1.54                   0.9682719        -129.599
1.544                  0.9457967       -135.1854
1.548                  0.9080974       -141.3444
1.552                   0.854038       -148.0399
1.556                  0.7832954       -155.2621
1.56                   0.6963603       -163.0476
1.564                  0.5945272       -171.5244
1.568                  0.4799234        178.9722
1.572                  0.3557393        167.5222
1.576                  0.2275798        150.9708
1.58                   0.1148052        113.1558
1.584                  0.1202192        30.97582
1.588                  0.2355978       -4.251139
1.592                  0.3638757       -20.28319
1.596                  0.4877044       -31.57652
1.6                    0.6017282       -41.02122
1.604                  0.7028247       -49.47685
1.608                  0.7889029        -57.2592
1.612                  0.8586982       -64.48809
1.616                  0.9117503       -71.19619
1.62                   0.9484136         -77.371
1.624                  0.9698586       -82.97432
1.628                  0.9780459       -87.95464
1.632                  0.9756539       -92.25865
1.636                  0.9659424        -95.8455
1.64                   0.9525258       -98.70471
1.644                  0.9390386       -100.8759
1.648                  0.9287027        -102.463
1.652                  0.9238667       -103.6342
1.656                   0.925643       -104.5982
1.66                    0.933787       -105.5639
1.664                  0.9468762       -106.6978
1.668                  0.9627249       -108.0971
1.672                  0.9788847       -109.7864
1.676                  0.9930928       -111.7295
1.68                    1.003595       -113.8499
1.684                   1.009332       -116.0488
1.688                    1.01001       -118.2214
1.692                   1.006076        -120.269
1.696                  0.9986188       -122.1099
1.7                    0.9891948       -123.6894
1.704                  0.9795962       -124.9885
1.708                   0.971571         -126.03
1.712                  0.9665314       -126.8765
1.716                  0.9653106        -127.621
1.72                   0.9680269        -128.368
1.724                  0.9740947       -129.2121
1.728                  0.9823773       -130.2205
1.732                  0.9914344       -131.4228
1.736                  0.9997947        -132.811
1.74                    1.006199       -134.3461
1.744                   1.009777       -135.9679
1.748                    1.01015       -137.6061
1.752                    1.00746       -139.1898
1.756                   1.002319       -140.6578
1.76                   0.9957131       -141.9661
1.764                  0.9888362       -143.0957
1.768                  0.9828991       -144.0557
1.772                  0.9789225       -144.8837
1.776                  0.9775594        -145.639
1.78                    0.978985       -146.3914
1.784                  0.9828778       -147.2076
1.788                   0.988501       -148.1382
1.792                  0.9948558       -149.2096
1.796                   1.000871       -150.4214
1.8                     1.005584       -151.7497
1.804                   1.008293       -153.1523
1.808                   1.008648       -154.5772
1.812                   1.006692       -155.9703
1.816                   1.002838       -157.2831
1.82                   0.9978009       -158.4801
1.824                   0.992474       -159.5442
1.828                  0.9877851         -160.48
1.832                  0.9845361       -161.3137
1.836                  0.9832636       -162.0887
1.84                   0.9841465       -162.8576
1.844                  0.9869818       -163.6719
1.848                  0.9912339       -164.5724
1.852                  0.9961437       -165.5822
1.856                    1.00087       -166.7039
1.86                    1.004638       -167.9207
1.864                   1.006857        -169.201
1.868                   1.007216       -170.5035
1.872                   1.005714       -171.7845
1.876                   1.002655       -173.0041
1.88                   0.9985965       -174.1324
1.884                  0.9942511       -175.1541
1.888                  0.9903712       -176.0717
1.892                  0.9876185        -176.905
1.896                  0.9864494       -177.6881
1.9                    0.9870357       -178.4631
1.904                   0.989239        -179.272
1.908                  0.9926436        179.8509
1.912                  0.9966402        178.8852
1.916                   1.000538         177.827
1.92                    1.003687        176.6887
1.924                   1.005582        175.4957
1.928                   1.005941        174.2818
1.932                   1.004743        173.0836
1.936                   1.002223         171.935
1.94                   0.9988343        170.8619
1.944                  0.9951688        169.8779
1.948                  0.9918584        168.9819
1.952                  0.9894658        168.1581
1.956                  0.9883881        167.3785
1.96                    0.988787        166.6082
1.964                  0.9905639        165.8117
1.968                  0.9933835        164.9595
1.972                  0.9967396        164.0335
1.976                   1.000049        163.0291
1.98                    1.002753        161.9558
1.984                    1.00441        160.8346
1.988                   1.004766         159.694
1.992                   1.003786        158.5653
1.996                    1.00166        157.4781
2                      0.9987669        156.4548
2.004                  0.9956084        155.5078
2.008                  0.9927263        154.6369
2.012                  0.9906094        153.8291
2.016                  0.9896077         153.061
2.02                   0.9898728        152.3028
2.024                  0.9913332         151.524
2.028                  0.9937124        150.6987
2.032                  0.9965816        149.8107
2.036                  0.9994396        148.8553
2.04                      1.0018        147.8397
2.044                   1.003273        146.7815
2.048                   1.003626        145.7051
2.052                   1.002818        144.6379
2.056                   1.001003        143.6055
2.06                   0.9985001         142.628
2.064                  0.9957418        141.7167
2.068                  0.9931981        140.8718
2.072                   0.991297        140.0827
2.076                  0.9903508        139.3294
2.08                   0.9905019        138.5865
2.084                  0.9917005        137.8274
2.088                  0.9937165        137.0293
2.092                  0.9961849        136.1774
2.096                  0.9986723        135.2668
2.1                     1.000752        134.3031
2.104                   1.002078        133.3011
2.108                   1.002435        132.2817
2.112                   1.001778        131.2686
2.116                   1.000227        130.2846
2.12                   0.9980531        129.3474
2.124                  0.9956271        128.4675
2.128                  0.9933574        127.6459
2.132                  0.9916208        126.8738
2.136                  0.9906983        126.1345
2.14                   0.9907263         125.406
2.144                  0.9916753        124.6653
2.148                  0.9933583        123.8921
2.152                  0.9954672        123.0729
2.156                  0.9976289        122.2025
2.16                     0.99947        121.2848
2.164                    1.00068         120.332
2.168                    1.00106        119.3617
2.172                   1.000554        118.3946
2.176                  0.9992519        117.4504
2.18                    0.997375        116.5454
2.184                  0.9952366        115.6892
2.188                  0.9931887        114.8835
2.192                  0.9915632        114.1221
2.196                   0.990615        113.3911
2.2                    0.9904798         112.672
2.204                   0.991153        111.9448
2.208                  0.9924924        111.1918
2.212                  0.9942475           110.4
2.216                  0.9961035        109.5638
2.22                   0.9977365        108.6852
2.224                  0.9988678        107.7734
2.228                  0.9993069        106.8428
2.232                  0.9989805        105.9107
2.236                  0.9979413        104.9945
2.24                   0.9963565        104.1087
2.244                  0.9944788         103.263
2.248                   0.992604        102.4604
2.252                  0.9910218        101.6972
2.256                  0.9899687        100.9629
2.26                   0.9895886        100.2427
2.264                  0.9899112        99.51988
2.268                  0.9908499        98.77844
2.272                  0.9922186        98.00598
2.276                  0.9937655        97.19554
2.28                   0.9952161        96.34655
2.284                  0.9963177        95.46455
2.288                  0.9968785        94.56015
2.292                  0.9967958        93.64712
2.296                   0.996069        92.74024
2.3                    0.9947976        91.85291
2.304                  0.9931625        90.99534
2.308                  0.9913981        90.17282
2.312                  0.9897536        89.38501
2.316                  0.9884549        88.62604
2.32                   0.9876696        87.88541
2.324                  0.9874819        87.14966
2.328                  0.9878807        86.40459
2.332                  0.9887636        85.63747
2.336                  0.9899551        84.83885
2.34                   0.9912336        84.00407
2.344                   0.992367         83.1336
2.348                  0.9931461        82.23284
2.352                  0.9934139         81.3112