! TOUCHSTONE file generated by CST MICROWAVE STUDIO
! Date and time: Tue Jun 14 11:27:55 2022
! Project name: AppElm_antenne_patch_FR4.cst
! Parameters = {L=45; W=70.2; e=0.035; h=1.6; lambda=0.190476; ls=120; w0=2.54; w1=0.847; ws=120; y0=18; y1=23.8}
! Header version: 2018
! Port assignment regex: !\s*Touchstone port\s*([0-9]+)\s*=\s*(CST MWS port|CST DS port)\s*([0-9]+|Zmin|Zmax)\s*\(\"(.*)\"\)(\s*mode\s*([0-9]+))?.*
! Touchstone port assignment:
! Touchstone port 1 = CST MWS port 1 ("")
# GHz S MA R 50
0                      0.9717436              -0
0.004                  0.9733633        -11.5836
0.008                  0.9779934       -23.02308
0.012                  0.9849859       -34.18579
0.016                  0.9933852       -44.95903
0.02                    1.002082       -55.25392
0.024                   1.009974       -65.00497
0.028                   1.016119       -74.16683
0.032                    1.01984       -82.71005
0.036                   1.020799       -90.61755
0.04                    1.019027       -97.88241
0.044                   1.014901       -104.5077
0.048                   1.009096       -110.5078
0.052                   1.002487       -115.9104
0.056                  0.9960306       -120.7591
0.06                   0.9906321       -125.1135
0.064                  0.9870064       -129.0476
0.068                  0.9855757       -132.6447
0.072                    0.98641       -135.9892
0.076                  0.9892303       -139.1578
0.08                   0.9934716       -142.2122
0.084                  0.9983907       -145.1939
0.088                   1.003193       -148.1228
0.092                   1.007156       -150.9996
0.096                   1.009735       -153.8102
0.1                     1.010623       -156.5305
0.104                   1.009788        -159.133
0.108                    1.00746       -161.5918
0.112                   1.004083       -163.8882
0.116                   1.000247       -166.0141
0.12                   0.9965869       -167.9748
0.124                  0.9936846       -169.7891
0.128                  0.9919761       -171.4875
0.132                  0.9916827       -173.1072
0.136                  0.9927829       -174.6872
0.14                    0.995026       -176.2617
0.144                  0.9979853        -177.855
0.148                   1.001139       -179.4794
0.152                    1.00396        178.8663
0.156                   1.006004        177.1944
0.16                    1.006971        175.5254
0.164                    1.00675        173.8843
0.168                   1.005426        172.2957
0.172                    1.00326        170.7801
0.176                   1.000641        169.3503
0.18                   0.9980204        168.0094
0.184                  0.9958363        166.7498
0.188                  0.9944407        165.5547
0.192                  0.9940406        164.4005
0.196                  0.9946679         163.261
0.2                    0.9961786         162.112
0.204                  0.9982841        160.9354
0.208                   1.000607        159.7214
0.212                   1.002746        158.4702
0.216                    1.00435        157.1907
0.22                    1.005165        155.8988
0.224                    1.00508        154.6144
0.228                   1.004137        153.3577
0.232                   1.002519        152.1462
0.236                   1.000518        150.9916
0.24                   0.9984822         149.898
0.244                  0.9967604        148.8611
0.248                  0.9956379        147.8689
0.252                  0.9952911        146.9037
0.256                  0.9957589        145.9455
0.26                   0.9969382        144.9753
0.264                  0.9986072        143.9785
0.268                   1.000466         142.947
0.272                   1.002192        141.8808
0.276                   1.003494         140.787
0.28                    1.004162        139.6786
0.284                   1.004097        138.5719
0.288                   1.003328        137.4841
0.292                   1.002002        136.4298
0.296                   1.000358        135.4193
0.3                    0.9986846        134.4562
0.304                  0.9972706        133.5372
0.308                  0.9963557        132.6527
0.312                  0.9960879        131.7881
0.316                  0.9965006        130.9268
0.32                   0.9975082         130.053
0.324                  0.9989231        129.1545
0.328                   1.000493        128.2248
0.332                   1.001943        127.2639
0.336                   1.003026        126.2779
0.34                    1.003564        125.2782
0.344                   1.003474         124.279
0.348                   1.002784        123.2949
0.352                   1.001622        122.3388
0.356                   1.000197        121.4192
0.36                   0.9987594        120.5393
0.364                  0.9975588        119.6961
0.368                  0.9967999        118.8808
0.372                  0.9966083         118.081
0.376                  0.9970079        117.2821
0.38                   0.9979189        116.4705
0.384                  0.9991735        115.6358
0.388                   1.000548        114.7726
0.392                     1.0018        113.8812
0.396                   1.002715        112.9675
0.4                      1.00314        112.0417
0.404                   1.003008        111.1165
0.408                    1.00235         110.205
0.412                   1.001286        109.3185
0.416                   1.000006        108.4642
0.42                   0.9987364        107.6447
0.424                  0.9976979        106.8566
0.428                  0.9970696        106.0921
0.432                  0.9969567        105.3395
0.436                  0.9973723        104.5859
0.44                   0.9982364        103.8191
0.444                   0.999392        103.0301
0.448                   1.000633        102.2146
0.452                   1.001741        101.3734
0.456                   1.002525        100.5121
0.46                    1.002853        99.64056
0.464                   1.002672        98.77042
0.468                    1.00202        97.91358
0.472                   1.001014           97.08
0.476                  0.9998355        96.27602
0.48                   0.9986909        95.50324
0.484                  0.9977816        94.75826
0.488                  0.9972651        94.03319
0.492                  0.9972288        93.31717
0.496                  0.9976743         92.5982
0.5                    0.9985183         91.8654
0.504                  0.9996078        91.11091
0.508                   1.000749        90.33126
0.512                    1.00174        89.52778
0.516                   1.002409        88.70642
0.52                    1.002641        87.87653
0.524                   1.002399        87.04921
0.528                   1.001728        86.23542
0.532                    1.00075        85.44412
0.536                  0.9996368        84.68067
0.54                   0.9985852        83.94592
0.544                  0.9977799          83.236
0.548                   0.997361        82.54304
0.552                  0.9973994        81.85652
0.556                  0.9978846        81.16516
0.56                   0.9987268        80.45902
0.564                  0.9997739        79.73127
0.568                   1.000839        78.97924
0.572                   1.001733        78.20497
0.576                     1.0023        77.41466
0.58                    1.002442        76.61757
0.584                   1.002135         75.8244
0.588                   1.001436        75.04536
0.592                   1.000469        74.28856
0.596                  0.9994054        73.55842
0.6                    0.9984333        72.85501
0.604                  0.9977243        72.17393
0.608                   0.997403        71.50705
0.612                  0.9975244        70.84404
0.616                  0.9980643        70.17419
0.62                   0.9989248        69.48832
0.624                  0.9999512        68.78048
0.628                    1.00096        68.04894
0.632                   1.001774        67.29639
0.636                   1.002249        66.52948
0.64                    1.002302        65.75755
0.644                   1.001925        64.99099
0.648                   1.001186        64.23951
0.652                   1.000216        63.51037
0.656                  0.9991875        62.80715
0.66                   0.9982821        62.12906
0.664                  0.9976607        61.47105
0.668                  0.9974332        60.82467
0.672                  0.9976386        60.17962
0.676                  0.9982388        59.52557
0.68                   0.9991253        58.85405
0.684                   1.000139           58.16
0.688                   1.001098        57.44258
0.692                   1.001833        56.70528
0.696                   1.002212        55.95524
0.7                     1.002168        55.20206
0.704                    1.00171        54.45595
0.708                   1.000917        53.72614
0.712                  0.9999291        53.01912
0.716                   0.998922        52.33759
0.72                   0.9980741        51.67987
0.724                  0.9975362        51.04013
0.728                  0.9974038        50.40946
0.732                  0.9976998        49.77747
0.736                  0.9983702        49.13415
0.74                   0.9992946        48.47166
0.744                   1.000307        47.78582
0.748                   1.001225        47.07673
0.752                   1.001887        46.34874
0.756                   1.002172        45.60966
0.76                     1.00203        44.86935
0.764                   1.001485          44.138
0.768                   1.000632        43.42436
0.772                  0.9996217        42.73423
0.776                  0.9986343        42.06931
0.78                   0.9978457        41.42694
0.784                  0.9973969        40.80045
0.788                   0.997369        40.18037
0.792                  0.9977674        39.55609
0.796                  0.9985208        38.91785
0.8                    0.9994942         38.2585
0.804                   1.000513        37.57473
0.808                   1.001395        36.86769
0.812                    1.00198        36.14271
0.816                   1.002165        35.40835
0.82                    1.001912        34.67488
0.824                   1.001266        33.95253
0.828                   1.000338        33.24963
0.832                  0.9992918         32.5712
0.836                  0.9983135        31.91795
0.84                   0.9975776        31.28611
0.844                  0.9972163        30.66805
0.848                  0.9972951        30.05358
0.852                  0.9978004        29.43187
0.856                  0.9986414        28.79335
0.86                    0.999667        28.13152
0.864                   1.000692        27.44408
0.868                   1.001532        26.73329
0.872                   1.002033        26.00559
0.876                   1.002103        25.27043
0.88                    1.001724         24.5386
0.884                   1.000961        23.82036
0.888                  0.9999454        23.12367
0.892                  0.9988556        22.45269
0.896                  0.9978853          21.807
0.9                    0.9972087        21.18158
0.904                  0.9969484        20.56765
0.908                   0.997153        19.95421
0.912                  0.9977872        19.33004
0.916                  0.9987384        18.68579
0.92                   0.9998359        18.01563
0.924                   1.000882        17.31835
0.928                   1.001688         16.5975
0.932                   1.002107        15.86078
0.936                   1.002059        15.11867
0.94                    1.001548        14.38259
0.944                   1.000661        13.66293
0.948                   0.999552         12.9672
0.952                  0.9984178        12.29864
0.956                  0.9974616        11.65556
0.96                   0.9968571        11.03149
0.964                  0.9967165        10.41632
0.968                  0.9970688        9.798064
0.972                  0.9978543        9.165088
0.976                  0.9989341         8.50822
0.98                    1.000115         7.82244
0.984                   1.001185        7.107777
0.988                   1.001949         6.36929
0.992                   1.002265        5.616165
0.996                   1.002072        4.860112
1                       1.001395        4.113346
1.004                   1.000349        3.386448
1.008                  0.9991164        2.686478
1.012                  0.9979137        2.015626
1.016                   0.996957        1.370692
1.02                   0.9964207       0.7435291
1.024                  0.9964051       0.1224306
1.028                  0.9969175      -0.5057667
1.032                   0.997869       -1.153262
1.036                  0.9990904       -1.829035
1.04                    1.000362       -2.537203
1.044                   1.001452       -3.276278
1.048                    1.00216       -4.039444
1.052                    1.00235       -4.815741
1.056                   1.001979       -5.591967
1.06                    1.001102       -6.354943
1.064                  0.9998651       -7.093824
1.068                  0.9984834       -7.802076
1.072                  0.9972009       -8.478771
1.076                   0.996249       -9.128947
1.08                   0.9958031       -9.762789
1.084                    0.99595       -10.39398
1.088                  0.9966698       -11.03722
1.092                  0.9978388       -11.70546
1.096                  0.9992496       -12.40741
1.1                     1.000649       -13.14619
1.104                   1.001781       -13.91852
1.108                   1.002437       -14.71541
1.112                   1.002487       -15.52378
1.116                    1.00191       -16.32846
1.12                    1.000795       -17.11508
1.124                  0.9993293       -17.87236
1.128                  0.9977677       -18.59437
1.132                  0.9963884        -19.2817
1.136                  0.9954427       -19.94161
1.14                   0.9951086       -20.58694
1.144                  0.9954562       -21.23385
1.148                  0.9964329       -21.89892
1.152                    0.99787       -22.59601
1.156                  0.9995123       -23.33371
1.16                    1.001063       -24.11375
1.164                   1.002237       -24.93066
1.168                   1.002812       -25.77272
1.172                   1.002665       -26.62394
1.176                   1.001803       -27.46677
1.18                    1.000358       -28.28508
1.184                  0.9985709       -29.06702
1.188                  0.9967502        -29.8073
1.192                  0.9952192       -30.50841
1.196                  0.9942577       -31.18053
1.2                     0.994049       -31.83994
1.204                  0.9946436       -32.50617
1.208                  0.9959463        -33.1984
1.212                  0.9977305       -33.93186
1.216                  0.9996777       -34.71499
1.22                    1.001433       -35.54787
1.224                   1.002668       -36.42216
1.228                   1.003142       -37.32254
1.232                   1.002741       -38.22925
1.236                   1.001506       -39.12132
1.24                   0.9996261       -39.98027
1.244                  0.9974145       -40.79326
1.248                  0.9952533       -41.55578
1.252                  0.9935298       -42.27288
1.256                  0.9925649       -42.95873
1.26                   0.9925514       -43.63447
1.264                   0.993514       -44.32438
1.268                  0.9952994       -45.05146
1.272                  0.9975998       -45.83299
1.276                   1.000006       -46.67734
1.28                    1.002079        -47.5824
1.284                   1.003428        -48.5359
1.288                    1.00378       -49.51745
1.292                   1.003027       -50.50182
1.296                   1.001258       -51.46311
1.3                    0.9987405       -52.37906
1.304                  0.9958906       -53.23513
1.308                  0.9931999       -54.02757
1.312                  0.9911523        -54.7649
1.316                  0.9901349       -55.46709
1.32                   0.9903604       -56.16243
1.324                  0.9918204       -56.88251
1.328                  0.9942782       -57.65624
1.332                  0.9973059       -58.50433
1.336                   1.000357       -59.43533
1.34                    1.002862       -60.44409
1.344                   1.004329       -61.51261
1.348                   1.004429       -62.61284
1.352                   1.003059       -63.71114
1.356                   1.000369        -64.7736
1.36                   0.9967512       -65.77156
1.364                  0.9927804       -66.68708
1.368                  0.9891282       -67.51695
1.372                  0.9864449       -68.27474
1.376                  0.9852377       -68.98973
1.38                   0.9857663       -69.70236
1.384                  0.9879799       -70.45693
1.388                  0.9915122        -71.2931
1.392                  0.9957374       -72.23822
1.396                  0.9998765       -73.30215
1.4                     1.003131       -74.47552
1.404                    1.00482       -75.73134
1.408                     1.0045       -77.02913
1.412                   1.002052       -78.32083
1.416                  0.9977146       -79.55797
1.42                   0.9920749       -80.69951
1.424                  0.9859916       -81.71962
1.428                  0.9804693        -82.6143
1.432                   0.976486       -83.40531
1.436                  0.9748068       -84.13917
1.44                   0.9758146       -84.88068
1.444                  0.9794077       -85.70099
1.448                   0.984986       -86.66366
1.452                  0.9915393       -87.81231
1.456                  0.9978118       -89.16268
1.46                     1.00251       -90.70047
1.464                   1.004514       -92.38411
1.468                   1.003063        -94.1507
1.472                  0.9978949       -95.92418
1.476                  0.9893293       -97.62489
1.48                   0.9782733       -99.18105
1.484                   0.966148       -100.5422
1.488                  0.9547121       -101.6937
1.492                  0.9457824       -102.6696
1.496                  0.9408766       -103.5578
1.5                     0.940843       -104.4927
1.504                  0.9455774        -105.633
1.508                  0.9539203       -107.1314
1.512                  0.9637637        -109.107
1.516                  0.9723249        -111.629
1.52                   0.9764947       -114.7154
1.524                  0.9731764       -118.3403
1.528                   0.959565       -122.4447
1.532                  0.9333517       -126.9459
1.536                  0.8928633       -131.7412
1.54                   0.8371494       -136.7049
1.544                  0.7660391       -141.6755
1.548                  0.6801863       -146.4226
1.552                  0.5811533       -150.5711
1.556                  0.4716517       -153.4089
1.56                   0.3563861       -153.3243
1.564                  0.2454897       -145.9497
1.568                  0.1693239       -120.2291
1.572                  0.1883678       -81.82445
1.576                  0.2834376       -64.07339
1.58                   0.3990748       -60.12434
1.584                   0.514893       -61.43486
1.588                  0.6232313       -64.96643
1.592                  0.7200276       -69.52873
1.596                  0.8027673       -74.55994
1.6                    0.8699657       -79.74519
1.604                  0.9210281       -84.87839
1.608                  0.9562145       -89.80528
1.612                   0.976621       -94.39847
1.616                  0.9841449       -98.54781
1.62                   0.9814094       -102.1602
1.624                  0.9716244       -105.1674
1.628                  0.9583562       -107.5398
1.632                  0.9451881       -109.3037
1.636                   0.935283       -110.5534
1.64                   0.9309209       -111.4487
1.644                  0.9331381       -112.1902
1.648                  0.9416132       -112.9783
1.652                  0.9548549       -113.9703
1.656                   0.970622       -115.2554
1.66                    0.986428         -116.85
1.664                   0.999992       -118.7118
1.668                   1.009566       -120.7577
1.672                   1.014124       -122.8837
1.676                   1.013442       -124.9792
1.68                    1.008071       -126.9406
1.684                  0.9992367       -128.6824
1.688                  0.9886571       -130.1486
1.692                  0.9782887       -131.3231
1.696                  0.9700127       -132.2359
1.7                    0.9653094       -132.9618
1.704                  0.9649845       -133.6081
1.708                  0.9690251       -134.2923
1.712                  0.9766307        -135.117
1.716                  0.9864054       -136.1506
1.72                    0.996653       -137.4172
1.724                   1.005691       -138.8987
1.728                   1.012122       -140.5427
1.732                   1.015031        -142.275
1.736                   1.014092       -144.0111
1.74                    1.009594       -145.6673
1.744                   1.002387       -147.1724
1.748                  0.9937563       -148.4769
1.752                  0.9852206       -149.5628
1.756                  0.9782878       -150.4489
1.76                   0.9741867       -151.1901
1.764                  0.9736351        -151.869
1.768                  0.9767029        -152.579
1.772                  0.9828067       -153.4055
1.776                  0.9908388       -154.4084
1.78                   0.9993914        -155.613
1.784                   1.007017       -157.0086
1.788                   1.012469       -158.5541
1.792                    1.01489       -160.1867
1.796                   1.013928       -161.8322
1.8                     1.009779       -163.4154
1.804                   1.003155       -164.8704
1.808                  0.9951823       -166.1501
1.812                  0.9872277       -167.2352
1.816                  0.9806791       -168.1398
1.82                   0.9766964       -168.9118
1.824                  0.9759924       -169.6254
1.828                  0.9786879       -170.3673
1.832                  0.9842894       -171.2183
1.836                    0.99179       -172.2378
1.84                   0.9998683       -173.4533
1.844                    1.00713        -174.858
1.848                   1.012344       -176.4151
1.852                    1.01463       -178.0657
1.856                    1.01359       -179.7381
1.86                     1.00936        178.6424
1.864                     1.0026        177.1426
1.868                  0.9943986        175.8122
1.872                  0.9861191        174.6736
1.876                  0.9791774        173.7162
1.88                   0.9747946        172.8941
1.884                  0.9737587        172.1325
1.888                   0.976262        171.3417
1.892                  0.9818538        170.4352
1.896                  0.9895268        169.3474
1.9                    0.9979104        168.0448
1.904                   1.005521        166.5301
1.908                   1.011009        164.8384
1.912                   1.013372        163.0297
1.916                   1.012101        161.1794
1.92                    1.007257         159.368
1.924                  0.9994796        157.6705
1.928                  0.9899059        156.1451
1.932                  0.9800226        154.8228
1.936                  0.9714376        153.6974
1.94                   0.9656009        152.7222
1.944                   0.963523        151.8134
1.948                  0.9655535         150.865
1.952                  0.9712895        149.7697
1.956                  0.9796393        148.4411
1.96                   0.9890256        146.8285
1.964                  0.9976671        144.9238
1.968                    1.00387        142.7574
1.972                   1.006286        140.3914
1.976                   1.004102        137.9081
1.98                   0.9971591        135.4001
1.984                  0.9859944        132.9585
1.988                  0.9718062        130.6609
1.992                  0.9563225        128.5568
1.996                   0.941574        126.6522
2                      0.9295659        124.8968
2.004                  0.9218863          123.18
2.008                  0.9193352        121.3413
2.012                   0.921679        119.1967
2.016                  0.9276177        116.5709
2.02                   0.9349742         113.325
2.024                  0.9410315        109.3676
2.028                  0.9429157        104.6522
2.032                  0.9379391        99.16247
2.036                  0.9238651        92.89513
2.04                   0.8990962        85.84213
2.044                  0.8628003        77.97342
2.048                  0.8150063        69.21854
2.052                  0.7566995        59.44341
2.056                  0.6899567        48.41894
2.06                     0.61818        35.78041
2.064                  0.5464932        20.99549
2.068                  0.4822652        3.423379
2.072                     0.4352        -17.3133
2.076                  0.4152558       -40.48187
2.08                   0.4272248       -63.80583
2.084                  0.4668442       -84.86265
2.088                  0.5241549       -102.6948
2.092                  0.5892496       -117.5831
2.096                  0.6547357       -130.1665
2.1                    0.7157043       -141.0039
2.104                  0.7691268        -150.488
2.108                  0.8133624       -158.8732
2.112                  0.8478394       -166.3184
2.116                  0.8728431       -172.9206
2.12                   0.8893509       -178.7411
2.124                  0.8988738        176.1759
2.128                  0.9032821        171.7878
2.132                  0.9046047        168.0409
2.136                  0.9048057        164.8622
2.14                   0.9055593        162.1567
2.144                  0.9080586        159.8115
2.148                  0.9128996        157.7074
2.152                  0.9200711        155.7334
2.156                    0.92905        153.8007
2.16                   0.9389756        151.8513
2.164                  0.9488551        149.8596
2.168                  0.9577557        147.8282
2.172                  0.9649525        145.7808
2.176                  0.9700188        143.7532
2.18                   0.9728581        141.7852
2.184                  0.9736829        139.9133
2.188                   0.972954        138.1651
2.192                  0.9712877        136.5554
2.196                  0.9693501        135.0844
2.2                    0.9677488        133.7379
2.204                  0.9669434        132.4904
2.208                  0.9671894        131.3095
2.212                  0.9685184        130.1619
2.216                  0.9707633        129.0185
2.22                   0.9736142         127.859
2.224                  0.9766911        126.6731
2.228                   0.979621        125.4609
2.232                  0.9820988        124.2306
2.236                    0.98393        122.9956
2.24                   0.9850458        121.7714
2.244                  0.9854957         120.572
2.248                  0.9854197        119.4084
2.252                  0.9850113        118.2865
2.256                  0.9844739         117.207
2.26                   0.9839853        116.1663
2.264                  0.9836717        115.1574
2.268                  0.9835966        114.1722
2.272                  0.9837651        113.2031
2.276                  0.9841394         112.244
2.28                   0.9846605        111.2911
2.284                  0.9852698        110.3428
2.288                  0.9859253         109.399
2.292                  0.9866081        108.4603
2.296                  0.9873198        107.5268
2.3                    0.9880708        106.5975
2.304                  0.9888654        105.6706
2.308                  0.9896868        104.7432
2.312                  0.9904898        103.8126
2.316                     0.9912        102.8773
2.32                   0.9917253        101.9379
2.324                  0.9919748        100.9977
2.328                  0.9918829        100.0625
2.332                   0.991432        99.14014
2.336                  0.9906687        98.23914
2.34                   0.9897078        97.36679
2.344                  0.9887223        96.52744
2.348                  0.9879184        95.72099
2.352                  0.9874988        94.94197