! TOUCHSTONE file generated by CST MICROWAVE STUDIO
! Date and time: Tue Jun 14 11:27:54 2022
! Project name: AppElm_antenne_patch_FR4.cst
! Parameters = {L=45; W=67.275; e=0.035; h=1.6; lambda=0.190476; ls=120; w0=2.54; w1=0.847; ws=120; y0=18; y1=23.8}
! Header version: 2018
! Port assignment regex: !\s*Touchstone port\s*([0-9]+)\s*=\s*(CST MWS port|CST DS port)\s*([0-9]+|Zmin|Zmax)\s*\(\"(.*)\"\)(\s*mode\s*([0-9]+))?.*
! Touchstone port assignment:
! Touchstone port 1 = CST MWS port 1 ("")
# GHz S MA R 50
0                      0.9789111              -0
0.004                   0.980204       -11.23024
0.008                  0.9838927       -22.32839
0.012                  0.9894398       -33.17169
0.016                  0.9960528       -43.65395
0.02                    1.002813       -53.68912
0.024                   1.008817       -63.21163
0.028                   1.013301       -72.17443
0.032                   1.015739         -80.546
0.036                   1.015906       -88.30793
0.04                    1.013893       -95.45346
0.044                    1.01009       -101.9874
0.048                   1.005121       -107.9271
0.052                  0.9997609       -113.3043
0.056                  0.9948132       -118.1653
0.06                    0.990994       -122.5707
0.064                  0.9888188       -126.5921
0.068                  0.9885257       -130.3059
0.072                  0.9900446       -133.7866
0.076                  0.9930222       -137.0985
0.08                   0.9968944       -140.2905
0.084                   1.000991       -143.3932
0.088                   1.004647       -146.4186
0.092                   1.007309        -149.363
0.096                   1.008612       -152.2116
0.1                     1.008425       -154.9433
0.104                   1.006859       -157.5362
0.108                   1.004239       -159.9728
0.112                   1.001046       -162.2441
0.116                  0.9978378       -164.3523
0.12                   0.9951529       -166.3118
0.124                  0.9934228       -168.1481
0.128                  0.9929015       -169.8941
0.132                   0.993626       -171.5856
0.136                  0.9954188       -173.2554
0.14                    0.997927       -174.9286
0.144                   1.000691       -176.6191
0.148                    1.00323       -178.3288
0.152                   1.005119        179.9511
0.156                   1.006064        178.2383
0.16                    1.005937        176.5546
0.164                   1.004797        174.9228
0.168                   1.002872        173.3619
0.172                   1.000516        171.8843
0.176                  0.9981477        170.4928
0.18                   0.9961796        169.1805
0.184                  0.9949437        167.9316
0.188                  0.9946358        166.7235
0.192                  0.9952837        165.5314
0.196                  0.9967465        164.3323
0.2                    0.9987442        163.1089
0.204                   1.000912        161.8525
0.208                   1.002866        160.5636
0.212                   1.004271        159.2514
0.216                   1.004897        157.9318
0.22                    1.004652        156.6244
0.224                   1.003597        155.3487
0.228                   1.001932        154.1212
0.232                  0.9999592        152.9522
0.236                  0.9980299        151.8442
0.24                    0.996483        150.7911
0.244                  0.9955849        149.7794
0.248                  0.9954832        148.7905
0.252                  0.9961815         147.804
0.256                  0.9975414        146.8013
0.26                   0.9993101        145.7693
0.264                   1.001168        144.7018
0.268                   1.002785        143.6011
0.272                   1.003883        142.4765
0.276                   1.004277        141.3431
0.28                    1.003908        140.2185
0.284                   1.002851          139.12
0.288                   1.001299        138.0618
0.292                   0.999533        137.0522
0.296                  0.9978656        136.0923
0.3                    0.9965919        135.1758
0.304                  0.9959338        134.2897
0.308                  0.9960018        133.4172
0.312                  0.9967758          132.54
0.316                  0.9981097        131.6425
0.32                   0.9997603        130.7137
0.324                   1.001431        129.7498
0.328                   1.002828        128.7541
0.332                   1.003707        127.7365
0.336                   1.003919        126.7114
0.34                    1.003433        125.6955
0.344                    1.00234        124.7045
0.348                   1.000837        123.7507
0.352                  0.9991929        122.8408
0.356                  0.9976998        121.9746
0.36                   0.9966222        121.1449
0.364                  0.9961496        120.3388
0.368                  0.9963631        119.5403
0.372                  0.9972194        118.7325
0.376                  0.9985616        117.9015
0.38                    1.000148        117.0383
0.384                   1.001694        116.1405
0.388                   1.002928        115.2128
0.392                   1.003633        114.2654
0.396                   1.003689        113.3129
0.4                     1.003089         112.371
0.404                    1.00194        111.4545
0.408                   1.000448        110.5742
0.412                  0.9988772        109.7354
0.416                  0.9975066        108.9364
0.42                   0.9965797        108.1695
0.424                    0.99626        107.4213
0.428                  0.9966028         106.676
0.432                  0.9975438        105.9178
0.436                  0.9989127         105.134
0.44                    1.000464        104.3172
0.444                   1.001921        103.4663
0.448                   1.003027        102.5871
0.452                   1.003588        101.6906
0.456                   1.003505        100.7913
0.46                    1.002795        99.90475
0.464                   1.001584        99.04464
0.468                   1.000086         98.2207
0.472                  0.9985668        97.43681
0.476                  0.9972965        96.69023
0.48                   0.9965013        95.97202
0.484                  0.9963232        95.26858
0.488                  0.9967931        94.56403
0.492                  0.9978262        93.84328
0.496                  0.9992373        93.09465
0.5                     1.000774        92.31201
0.504                   1.002164        91.49573
0.508                   1.003161        90.65257
0.512                   1.003589        89.79432
0.516                   1.003373        88.93581
0.52                     1.00255        88.09226
0.524                   1.001265        87.27678
0.528                  0.9997445        86.49802
0.532                  0.9982569        85.75858
0.536                   0.997067        85.05451
0.54                   0.9963872        84.37585
0.544                   0.996339        83.70835
0.548                  0.9969316        83.03612
0.552                  0.9980585         82.3445
0.556                  0.9995184        81.62275
0.56                    1.001051        80.86592
0.564                   1.002385        80.07571
0.568                   1.003282        79.25998
0.572                   1.003585        78.43133
0.576                   1.003238        77.60496
0.58                    1.002301        76.79601
0.584                   1.000938        76.01694
0.588                  0.9993888        75.27544
0.592                  0.9979271         74.5729
0.596                  0.9968137        73.90406
0.6                    0.9962484        73.25787
0.604                  0.9963336         72.6194
0.608                  0.9970551        71.97258
0.612                  0.9982853        71.30309
0.616                  0.9998048        70.60109
0.62                    1.001344         69.8628
0.624                   1.002629        69.09122
0.628                   1.003432        68.29537
0.632                    1.00361        67.48883
0.636                   1.003128        66.68722
0.64                     1.00207        65.90562
0.644                   1.000618        65.15606
0.648                  0.9990281        64.44521
0.652                  0.9975813        63.77321
0.656                  0.9965354        63.13351
0.66                   0.9960785        62.51389
0.664                  0.9962942        61.89861
0.668                  0.9971453        61.27135
0.672                  0.9984813        60.61813
0.676                   1.000064        59.92991
0.68                    1.001613        59.20411
0.684                   1.002852        58.44503
0.688                   1.003561        57.66298
0.692                   1.003613        56.87245
0.696                   1.002993        56.08963
0.7                     1.001809        55.32965
0.704                   1.000265        54.60396
0.708                  0.9986332        53.91831
0.712                  0.9972026        53.27155
0.716                  0.9962293        52.65571
0.72                     0.99589        52.05731
0.724                  0.9962478        51.45977
0.728                  0.9972424        50.84639
0.732                  0.9986981         50.2035
0.736                   1.000357        49.52288
0.74                    1.001925        48.80318
0.744                   1.003124        48.05013
0.748                   1.003739        47.27533
0.752                   1.003659        46.49436
0.756                   1.002893        45.72405
0.76                    1.001572         44.9796
0.764                  0.9999234        44.27201
0.768                  0.9982377        43.60603
0.772                  0.9968134        42.97916
0.776                  0.9959059        42.38199
0.78                   0.9956801        41.79967
0.784                  0.9961799        41.21464
0.788                   0.997319        40.60983
0.792                  0.9988962        39.97182
0.796                   1.000632        39.29321
0.8                     1.002218        38.57395
0.804                   1.003372         37.8212
0.808                   1.003886        37.04802
0.812                   1.003665        36.27114
0.816                   1.002741        35.50807
0.82                    1.001271        34.77416
0.824                   0.999509        34.07993
0.828                  0.9977644         33.4291
0.832                  0.9963469        32.81775
0.836                  0.9955118        32.23485
0.84                   0.9954122        31.66406
0.844                  0.9960708        31.08672
0.848                  0.9973745         30.4853
0.852                  0.9990938        29.84658
0.856                   1.000925        29.16404
0.86                    1.002543        28.43895
0.864                   1.003659        27.68006
0.868                   1.004073        26.90199
0.872                   1.003706        26.12275
0.876                   1.002613         25.3607
0.88                     1.00098        24.63141
0.884                  0.9990886        23.94498
0.888                  0.9972712        23.30407
0.892                  0.9958502        22.70326
0.896                  0.9950821        22.12976
0.9                    0.9951088        21.56563
0.904                  0.9959309        20.99098
0.908                  0.9974065        20.38769
0.912                  0.9992758         19.7427
0.916                   1.001208        19.05038
0.92                    1.002859        18.31341
0.924                   1.003935        17.54223
0.928                   1.004239        16.75319
0.932                   1.003709        15.96574
0.936                   1.002429        15.19919
0.94                    1.000613        14.46945
0.944                  0.9985753         13.7862
0.948                  0.9966735        13.15101
0.952                  0.9952462         12.5568
0.956                  0.9945525        11.98884
0.96                   0.9947233        11.42731
0.964                  0.9957356        10.85087
0.968                  0.9974158        10.24064
0.972                  0.9994697        9.583648
0.976                   1.001535        8.875134
0.98                    1.003246        8.119297
0.984                   1.004298        7.328442
0.988                   1.004498        6.520836
0.992                     1.0038        5.717629
0.996                   1.002315        4.939337
1                       1.000294        4.202372
1.004                  0.9980846        3.516116
1.008                  0.9960745        2.881034
1.012                  0.9946227        2.288275
1.016                  0.9939939        1.720973
1.02                   0.9943092        1.157162
1.024                   0.995521       0.5737903
1.028                  0.9974213     -0.04900035
1.032                  0.9996769      -0.7242231
1.036                    1.00189       -1.455763
1.04                    1.003668        -2.23781
1.044                    1.00469       -3.055978
1.048                   1.004768       -3.889791
1.052                   1.003871       -4.716091
1.056                   1.002142       -5.512858
1.06                   0.9998695       -6.262934
1.064                  0.9974431       -6.957113
1.068                  0.9952878       -7.596069
1.072                  0.9937891       -8.190634
1.076                   0.993222       -8.760199
1.08                   0.9936988       -9.329291
1.084                  0.9951465       -9.923216
1.088                  0.9973175       -10.56315
1.092                  0.9998331       -11.26243
1.096                   1.002251       -12.02407
1.1                     1.004143       -12.84064
1.104                   1.005169       -13.69528
1.108                   1.005135       -14.56499
1.112                   1.004029       -15.42403
1.116                   1.002024       -16.24846
1.12                   0.9994536       -17.01992
1.124                  0.9967576       -17.72914
1.128                  0.9944077       -18.37782
1.132                  0.9928247         -18.979
1.136                   0.992301       -19.55498
1.14                   0.9929441       -20.13351
1.144                   0.994654       -20.74262
1.148                  0.9971382       -21.40544
1.152                  0.9999635        -22.1359
1.156                   1.002633       -22.93637
1.16                     1.00467        -23.7974
1.164                   1.005707       -24.69947
1.168                    1.00554       -25.61627
1.172                   1.004171       -26.51896
1.176                   1.001811       -27.38081
1.18                   0.9988471       -28.18173
1.184                  0.9957813        -28.9119
1.188                  0.9931484        -29.5741
1.192                  0.9914198       -30.18387
1.196                  0.9909173       -30.76716
1.2                      0.99175        -31.3559
1.204                  0.9937895       -31.98206
1.208                    0.99669        -32.6716
1.212                  0.9999488       -33.43977
1.216                   1.002995       -34.28847
1.22                    1.005287       -35.20617
1.224                   1.006409       -36.17001
1.228                   1.006138       -37.14962
1.232                   1.004485       -38.11186
1.236                     1.0017       -39.02617
1.24                   0.9982356       -39.86958
1.244                  0.9946751       -40.63105
1.248                   0.991639        -41.3141
1.252                  0.9896728       -41.93712
1.256                  0.9891473        -42.5307
1.26                   0.9901832        -43.1324
1.264                  0.9926238       -43.77969
1.268                  0.9960578       -44.50284
1.272                  0.9998911       -45.31941
1.276                   1.003451       -46.23123
1.28                    1.006102        -47.2244
1.284                   1.007354       -48.27184
1.288                   1.006944       -49.33764
1.292                   1.004888       -50.38265
1.296                   1.001479       -51.37046
1.3                    0.9972545       -52.27344
1.304                  0.9929141       -53.07795
1.308                  0.9892047       -53.78769
1.312                  0.9867904       -54.42449
1.316                  0.9861277       -55.02533
1.32                   0.9873724       -55.63609
1.324                  0.9903424        -56.3029
1.328                  0.9945415        -57.0633
1.332                  0.9992468       -57.93927
1.336                   1.003634       -58.93359
1.34                    1.006916       -60.02984
1.344                    1.00848       -61.19539
1.348                   1.007984       -62.38655
1.352                   1.005423       -63.55509
1.356                   1.001139       -64.65544
1.36                   0.9957831       -65.65188
1.364                  0.9902205       -66.52531
1.368                  0.9853973        -67.2782
1.372                  0.9821747       -67.93635
1.376                  0.9811671       -68.54596
1.38                   0.9826126       -69.16611
1.384                  0.9863132       -69.85745
1.388                  0.9916568       -70.67044
1.392                   0.997722       -71.63582
1.396                   1.003435       -72.75954
1.4                     1.007753       -74.02249
1.404                   1.009833       -75.38418
1.408                    1.00917       -76.78896
1.412                   1.005688       -78.17368
1.416                  0.9997723       -79.47642
1.42                   0.9922327       -80.64573
1.424                  0.9842094       -81.65011
1.428                  0.9770051       -82.48621
1.432                  0.9718674       -83.18369
1.436                  0.9697527       -83.80389
1.44                   0.9711203        -84.4306
1.444                  0.9758106       -85.15449
1.448                  0.9830471       -86.05474
1.452                  0.9915597       -87.18382
1.456                  0.9997999       -88.55904
1.46                    1.006195        -90.1614
1.464                   1.009394       -91.94023
1.468                   1.008473       -93.82099
1.472                   1.003087       -95.71437
1.476                  0.9935562       -97.52653
1.48                    0.980879       -99.17089
1.484                  0.9666555       -100.5824
1.488                  0.9529087       -101.7339
1.492                  0.9417875       -102.6522
1.496                  0.9351709       -103.4266
1.5                    0.9342401       -104.2038
1.504                  0.9391345       -105.1635
1.508                  0.9488068       -106.4838
1.512                  0.9611263       -108.3061
1.516                  0.9731826        -110.716
1.52                   0.9816781       -113.7408
1.524                  0.9833055        -117.359
1.528                  0.9750492       -121.5152
1.532                  0.9543985       -126.1319
1.536                  0.9194812       -131.1175
1.54                    0.869141       -136.3675
1.544                  0.8029712       -141.7594
1.548                  0.7213265       -147.1354
1.552                  0.6253273        -152.263
1.556                  0.5169067        -156.736
1.56                   0.3990387       -159.6894
1.564                  0.2768106       -158.7659
1.568                  0.1636959       -145.2504
1.572                  0.1195077        -96.1717
1.576                  0.2005034       -60.79913
1.58                   0.3195907       -53.65695
1.584                  0.4409356       -54.56853
1.588                  0.5556981       -58.21336
1.592                  0.6598192       -62.98758
1.596                  0.7507777       -68.24514
1.6                    0.8269712        -73.6601
1.604                  0.8875777       -79.03434
1.608                  0.9325277       -84.22679
1.612                  0.9624956       -89.12412
1.616                  0.9788791       -93.62864
1.62                   0.9837506       -97.65519
1.624                  0.9797616       -101.1346
1.628                  0.9699892       -104.0226
1.632                  0.9577012       -106.3123
1.636                  0.9460417       -108.0476
1.64                   0.9376578       -109.3291
1.644                  0.9343413       -110.3074
1.648                  0.9367884       -111.1592
1.652                   0.944571       -112.0532
1.656                  0.9563358       -113.1184
1.66                   0.9701661       -114.4262
1.664                  0.9839879       -115.9889
1.668                  0.9959251       -117.7709
1.672                   1.004552        -119.704
1.676                    1.00904       -121.7028
1.68                    1.009204       -123.6773
1.684                   1.005477        -125.544
1.688                  0.9988192       -127.2345
1.692                  0.9905623       -128.7046
1.696                  0.9822157       -129.9403
1.7                    0.9752359       -130.9619
1.704                  0.9707935       -131.8219
1.708                  0.9695856        -132.597
1.712                  0.9717288        -133.373
1.716                  0.9767687       -134.2289
1.72                   0.9837934       -135.2222
1.724                  0.9916253       -136.3809
1.728                  0.9990348       -137.7024
1.732                   1.004938       -139.1581
1.736                   1.008549       -140.7005
1.74                    1.009469       -142.2718
1.744                   1.007725       -143.8124
1.748                    1.00374       -145.2687
1.752                  0.9982614          -146.6
1.756                  0.9922448       -147.7844
1.76                   0.9867031       -148.8225
1.764                  0.9825466       -149.7378
1.768                  0.9804352       -150.5736
1.772                  0.9806702       -151.3849
1.776                  0.9831547       -152.2288
1.78                   0.9874232       -153.1536
1.784                  0.9927397       -154.1911
1.788                  0.9982327       -155.3523
1.792                   1.003043       -156.6277
1.796                   1.006457       -157.9902
1.8                     1.008003       -159.4012
1.804                   1.007513       -160.8159
1.808                    1.00513       -162.1903
1.812                   1.001286       -163.4871
1.816                  0.9966246       -164.6806
1.82                   0.9919099       -165.7609
1.824                  0.9879011       -166.7361
1.828                  0.9852344       -167.6309
1.832                  0.9843186        -168.483
1.836                  0.9852701       -169.3367
1.84                    0.987899       -170.2348
1.844                  0.9917499        -171.211
1.848                  0.9961858       -172.2853
1.852                   1.000497       -173.4609
1.856                   1.004016       -174.7252
1.86                    1.006215       -176.0528
1.864                    1.00678       -177.4098
1.868                    1.00565       -178.7586
1.872                   1.003021        179.9363
1.876                  0.9993124        178.7041
1.88                   0.9951073        177.5628
1.884                  0.9910623        176.5165
1.888                  0.9878074        175.5544
1.892                  0.9858465        174.6519
1.896                  0.9854743        173.7742
1.9                    0.9867302        172.8827
1.904                  0.9893922        171.9411
1.908                  0.9930181        170.9215
1.912                  0.9970202        169.8092
1.916                   1.000761        168.6034
1.92                    1.003649        167.3176
1.924                   1.005228        165.9763
1.928                   1.005241        164.6115
1.932                   1.003661         163.258
1.936                   1.000698        161.9488
1.94                   0.9967728        160.7106
1.944                  0.9924529        159.5593
1.948                  0.9883772        158.4977
1.952                  0.9851572        157.5138
1.956                  0.9832816        156.5822
1.96                   0.9830335        155.6674
1.964                  0.9844426        154.7298
1.968                  0.9872752        153.7318
1.972                    0.99107        152.6444
1.976                  0.9952104        151.4514
1.98                   0.9990183        150.1517
1.984                   1.001855        148.7585
1.988                   1.003215        147.2974
1.992                   1.002794        145.8026
1.996                   1.000541        144.3123
2                      0.9966673        142.8638
2.004                  0.9916278        141.4882
2.008                  0.9860678        140.2056
2.012                  0.9807386        139.0209
2.016                  0.9763866        137.9211
2.02                   0.9736371         136.876
2.024                  0.9728829        135.8411
2.028                  0.9742067        134.7641
2.032                  0.9773519        133.5935
2.036                  0.9817492        132.2869
2.04                   0.9865967        130.8173
2.044                  0.9909743        129.1773
2.048                  0.9939752        127.3786
2.052                  0.9948318        125.4505
2.056                  0.9930253        123.4351
2.06                   0.9883642        121.3827
2.064                  0.9810288         119.345
2.068                  0.9715729        117.3684
2.072                   0.960878        115.4862
2.076                  0.9500551        113.7096
2.08                   0.9402944        112.0212
2.084                  0.9326707        110.3697
2.088                  0.9279339        108.6715
2.092                  0.9263231        106.8186
2.096                  0.9274537        104.6926
2.1                    0.9303048         102.181
2.104                  0.9333126        99.19004
2.108                  0.9345399         95.6521
2.112                  0.9318835        91.52484
2.116                  0.9232781        86.78554
2.12                    0.906874        81.42171
2.124                  0.8811809        75.42052
2.128                  0.8451794        68.75657
2.132                   0.798411        61.37755
2.136                  0.7410619        53.18385
2.14                   0.6740696        43.99674
2.144                   0.599299        33.50405
2.148                  0.5198917        21.16733
2.152                  0.4409839        6.083247
2.156                  0.3710498       -13.08855
2.16                   0.3232998       -37.48433
2.164                  0.3125904       -65.60835
2.168                  0.3431545       -92.33805
2.172                  0.4035799       -114.0735
2.176                   0.478751       -131.0282
2.18                   0.5578225       -144.6153
2.184                  0.6341187       -155.9618
2.188                   0.703551       -165.7643
2.192                  0.7636225        -174.427
2.196                  0.8129443        177.8217
2.2                    0.8510074        170.8573
2.204                  0.8780646        164.6178
2.208                  0.8950538        159.0782
2.212                  0.9035156        154.2314
2.216                  0.9054868        150.0734
2.22                   0.9033433        146.5877
2.224                  0.8995856        143.7319
2.228                  0.8965661        141.4268
2.232                  0.8961934        139.5544
2.236                  0.8996699        137.9674
2.24                     0.90734        136.5096
2.244                   0.918698        135.0418
2.248                  0.9325604        133.4624
2.252                  0.9473413        131.7186
2.256                  0.9613598        129.8049
2.26                   0.9731119        127.7545
2.264                   0.981474        125.6272
2.268                  0.9858281        123.4976
2.272                   0.986115        121.4447
2.276                  0.9828211        119.5418
2.28                   0.9769045        117.8481
2.284                  0.9696641        116.4001
2.288                  0.9625569        115.2049
2.292                  0.9569785        114.2359
2.296                   0.954038        113.4351
2.3                    0.9543689        112.7214
2.304                  0.9580237        112.0052
2.308                  0.9644811        111.2064
2.312                  0.9727619        110.2674
2.316                  0.9816213        109.1621
2.32                   0.9897698        107.8964
2.324                  0.9960777        106.5036
2.328                   0.999736        105.0368
2.332                   1.000358        103.5599
2.336                  0.9980233        102.1388
2.34                   0.9932541        100.8331
2.344                  0.9869422        99.68755
2.348                  0.9802177         98.7249
2.352                  0.9742758        97.94104