! TOUCHSTONE file generated by CST MICROWAVE STUDIO
! Date and time: Tue Jun 14 11:27:52 2022
! Project name: AppElm_antenne_patch_FR4.cst
! Parameters = {L=45; W=61.425; e=0.035; h=1.6; lambda=0.190476; ls=120; w0=2.54; w1=0.847; ws=120; y0=18; y1=23.8}
! Header version: 2018
! Port assignment regex: !\s*Touchstone port\s*([0-9]+)\s*=\s*(CST MWS port|CST DS port)\s*([0-9]+|Zmin|Zmax)\s*\(\"(.*)\"\)(\s*mode\s*([0-9]+))?.*
! Touchstone port assignment:
! Touchstone port 1 = CST MWS port 1 ("")
# GHz S MA R 50
0                      0.9840408              -0
0.004                  0.9849713       -10.38793
0.008                  0.9876349       -20.67147
0.012                  0.9916675       -30.75226
0.016                  0.9965266       -40.54287
0.02                    1.001573       -49.96979
0.024                   1.006162       -58.97429
0.028                   1.009731       -67.51194
0.032                   1.011871       -75.55111
0.036                   1.012371       -83.07164
0.04                    1.011242       -90.06381
0.044                   1.008707       -96.52804
0.048                    1.00517       -102.4751
0.052                   1.001153       -107.9267
0.056                  0.9972314       -112.9158
0.06                   0.9939457       -117.4863
0.064                  0.9917272       -121.6903
0.068                   0.990835       -125.5856
0.072                  0.9913226       -129.2304
0.076                  0.9930373       -132.6786
0.08                   0.9956523       -135.9749
0.084                  0.9987255       -139.1526
0.088                   1.001772       -142.2313
0.092                   1.004341       -145.2186
0.096                   1.006075       -148.1116
0.1                     1.006762       -150.9004
0.104                   1.006358       -153.5718
0.108                   1.004982       -156.1124
0.112                   1.002895        -158.513
0.116                   1.000458       -160.7703
0.12                   0.9980693       -162.8889
0.124                  0.9961053       -164.8818
0.128                  0.9948614       -166.7693
0.132                  0.9945061       -168.5762
0.136                  0.9950588        -170.329
0.14                   0.9963922       -172.0517
0.144                  0.9982579       -173.7631
0.148                   1.000333       -175.4746
0.152                   1.002275       -177.1889
0.156                   1.003776       -178.9012
0.16                    1.004614        179.3997
0.164                   1.004677        177.7283
0.168                   1.003984        176.1005
0.172                   1.002674        174.5299
0.176                    1.00098        173.0261
0.18                   0.9991923        171.5925
0.184                  0.9976069        170.2256
0.188                  0.9964796        168.9155
0.192                  0.9959839        167.6476
0.196                  0.9961831        166.4042
0.2                    0.9970229        165.1681
0.204                  0.9983439         163.925
0.208                  0.9999112        162.6656
0.212                   1.001456        161.3869
0.216                   1.002722        160.0925
0.22                    1.003505        158.7909
0.224                   1.003687        157.4946
0.228                   1.003252        156.2174
0.232                   1.002285        154.9723
0.236                    1.00096        153.7689
0.24                   0.9995035        152.6124
0.244                  0.9981635        151.5021
0.248                  0.9971625        150.4319
0.252                  0.9966626        149.3907
0.256                  0.9967375         148.365
0.26                   0.9973623        147.3407
0.264                  0.9984191        146.3056
0.268                  0.9997198        145.2514
0.272                   1.001038        144.1749
0.276                   1.002151        143.0786
0.28                    1.002872        141.9696
0.284                   1.003088        140.8586
0.288                   1.002768        139.7577
0.292                   1.001976        138.6789
0.296                   1.000851        137.6313
0.3                    0.9995904        136.6204
0.304                  0.9984093        135.6464
0.308                  0.9975088        134.7048
0.312                  0.9970396        133.7863
0.316                  0.9970767        132.8795
0.32                   0.9976068        131.9717
0.324                  0.9985329        131.0522
0.328                  0.9996907        130.1132
0.332                   1.000879        129.1517
0.336                   1.001894        128.1695
0.34                    1.002564        127.1729
0.344                   1.002781        126.1716
0.348                    1.00251        125.1768
0.352                   1.001804        124.1994
0.356                   1.000789        123.2483
0.36                   0.9996414        122.3287
0.364                  0.9985602        121.4413
0.368                  0.9977322        120.5819
0.372                  0.9972992        119.7426
0.376                  0.9973336        118.9125
0.38                   0.9978259        118.0803
0.384                  0.9986875        117.2357
0.388                  0.9997666        116.3716
0.392                   1.000875        115.4851
0.396                   1.001821        114.5777
0.4                     1.002443        113.6556
0.404                   1.002637        112.7279
0.408                   1.002372        111.8051
0.412                   1.001695        110.8977
0.416                   1.000727        110.0143
0.42                   0.9996362        109.1597
0.424                  0.9986126        108.3346
0.428                  0.9978338        107.5351
0.432                  0.9974348        106.7534
0.436                  0.9974837        105.9794
0.44                   0.9979699         105.202
0.444                  0.9988064        104.4115
0.448                  0.9998455        103.6011
0.452                   1.000905        102.7682
0.456                   1.001799        101.9146
0.46                    1.002374        101.0462
0.464                    1.00253        100.1719
0.468                   1.002241        99.30238
0.472                   1.001556        98.44761
0.476                   1.000596        97.61576
0.48                   0.9995278        96.81152
0.484                  0.9985371        96.03528
0.488                  0.9977971        95.28301
0.492                  0.9974369        94.54692
0.496                  0.9975188        93.81681
0.5                    0.9980276        93.08196
0.504                  0.9988726        92.33291
0.508                  0.9999042        91.56323
0.512                   1.000941         90.7706
0.516                     1.0018        89.95718
0.52                    1.002333        89.12914
0.524                   1.002444        88.29559
0.528                   1.002114        87.46699
0.532                   1.001399        86.65338
0.536                   1.000425        85.86262
0.54                   0.9993606        85.09906
0.544                  0.9983925        84.36268
0.548                  0.9976914        83.64904
0.552                  0.9973807        82.95006
0.556                  0.9975161        82.25535
0.56                   0.9980739        81.55416
0.564                  0.9989559        80.83721
0.568                   1.000007        80.09846
0.572                   1.001041        79.33603
0.576                   1.001876        78.55258
0.58                    1.002366        77.75476
0.584                   1.002424        76.95206
0.588                   1.002037        76.15512
0.592                   1.001273        75.37399
0.596                   1.000264         74.6163
0.6                    0.9991874        73.88596
0.604                  0.9982325        73.18245
0.608                  0.9975691        72.50067
0.612                  0.9973156        71.83202
0.616                  0.9975187        71.16575
0.62                   0.9981436        70.49089
0.624                   0.999081        69.79837
0.628                   1.000165        69.08247
0.632                   1.001205        68.34191
0.636                   1.002016        67.58006
0.64                    1.002455        66.80423
0.644                   1.002442        66.02444
0.648                   1.001977        65.25174
0.652                   1.001139         64.4962
0.656                   1.000074        63.76527
0.66                   0.9989682        63.06234
0.664                   0.998017        62.38613
0.668                  0.9973898        61.73081
0.672                  0.9971999        61.08698
0.676                  0.9974827        60.44336
0.68                   0.9981898        59.78872
0.684                  0.9991971        59.11407
0.688                   1.000326        58.41415
0.692                   1.001376        57.68841
0.696                    1.00216        56.94104
0.7                     1.002537        56.18025
0.704                   1.002438        55.41681
0.708                   1.001875         54.6622
0.712                   1.000944        53.92662
0.716                  0.9998071        53.21725
0.72                   0.9986624        52.53687
0.724                  0.9977133        51.88331
0.728                  0.9971298        51.24976
0.732                  0.9970178        50.62586
0.736                  0.9973999        49.99961
0.74                   0.9982107        49.35946
0.744                  0.9993073        48.69651
0.748                   1.000495        48.00605
0.752                   1.001563        47.28838
0.756                    1.00232        46.54876
0.76                    1.002628        45.79645
0.764                   1.002429        45.04311
0.768                   1.001753        44.30078
0.772                   1.000714        43.57981
0.776                  0.9994942        42.88705
0.78                   0.9983068        42.22456
0.784                  0.9973641        41.58908
0.788                  0.9968362        40.97259
0.792                  0.9968208         40.3636
0.796                  0.9973246        39.74925
0.8                    0.9982612         39.1176
0.804                  0.9994658        38.45991
0.808                   1.000725        37.77212
0.812                   1.001814        37.05559
0.816                   1.002537        36.31683
0.82                    1.002763        35.56635
0.824                   1.002444        34.81686
0.828                   1.001633        34.08107
0.832                   1.000466        33.36949
0.836                  0.9991467        32.68859
0.84                   0.9979085        32.03948
0.844                  0.9969727        31.41766
0.848                  0.9965095        30.81364
0.852                  0.9966064        30.21461
0.856                  0.9972506        29.60672
0.86                   0.9983311        28.97764
0.864                  0.9996576         28.3188
0.868                   1.000994        27.62696
0.872                   1.002101        26.90472
0.876                   1.002778        26.16009
0.88                    1.002899        25.40506
0.884                   1.002435        24.65353
0.888                    1.00146        23.91898
0.892                    1.00014        23.21209
0.896                  0.9987041         22.5388
0.9                    0.9974067        21.89914
0.904                  0.9964806        21.28707
0.908                  0.9960953        20.69142
0.912                  0.9963255        20.09778
0.916                  0.9971354         19.4912
0.92                   0.9983846        18.85888
0.924                  0.9998524        18.19253
0.928                   1.001277        17.48988
0.932                   1.002403        16.75503
0.936                   1.003024        15.99775
0.94                    1.003022        15.23172
0.944                   1.002388        14.47227
0.948                   1.001224        13.73372
0.952                  0.9997291        13.02688
0.956                  0.9981635        12.35708
0.96                   0.9968053        11.72302
0.964                  0.9959001        11.11684
0.968                   0.995616        10.52532
0.972                  0.9960116        9.932261
0.976                  0.9970234         9.32139
0.98                   0.9984763        8.679409
0.984                   1.000114        7.998416
0.988                   1.001644        7.277326
0.992                   1.002791        6.522028
0.996                   1.003345        5.744347
1                       1.003197        4.959998
1.004                   1.002363         4.18594
1.008                   1.000977        3.437473
1.012                  0.9992776         2.72556
1.016                  0.9975615        2.054752
1.02                   0.9961348        1.422163
1.024                  0.9952579       0.8177331
1.028                  0.9950962       0.2258595
1.032                  0.9956888      -0.3718325
1.036                  0.9969387      -0.9931083
1.04                   0.9986291       -1.651823
1.044                   1.000461       -2.355379
1.048                   1.002108        -3.10341
1.052                   1.003271       -3.887884
1.056                   1.003733       -4.694512
1.06                      1.0034       -5.505173
1.064                   1.002315       -6.300964
1.068                   1.000654       -7.065408
1.072                  0.9987006        -7.78738
1.076                  0.9967961       -8.463251
1.08                    0.995281       -9.097829
1.084                  0.9944324       -9.703859
1.088                  0.9944133       -10.29983
1.092                  0.9952385       -10.90674
1.096                  0.9967707       -11.54416
1.1                    0.9987425       -12.22663
1.104                   1.000804       -12.96088
1.108                   1.002585       -13.74482
1.112                    1.00376        -14.5678
1.116                   1.004107       -15.41256
1.12                    1.003543       -16.25808
1.124                   1.002148       -17.08306
1.128                   1.000148       -17.86959
1.132                   0.997883       -18.60628
1.136                  0.9957491       -19.29064
1.14                   0.9941287       -19.92987
1.144                  0.9933212       -20.53999
1.148                  0.9934857       -21.14314
1.152                  0.9946082       -21.76359
1.156                  0.9965004       -22.42319
1.16                    0.998833       -23.13729
1.164                   1.001192       -23.91195
1.168                   1.003152       -24.74286
1.172                   1.004355        -25.6162
1.176                   1.004566       -26.51098
1.18                    1.003724        -27.4025
1.184                   1.001948       -28.26644
1.188                  0.9995276       -29.08297
1.192                  0.9968747       -29.84033
1.196                  0.9944545       -30.53737
1.2                    0.9927046       -31.18428
1.204                  0.9919538       -31.80124
1.208                  0.9923578        -32.4151
1.212                  0.9938666       -33.05439
1.216                  0.9962279       -33.74398
1.22                   0.9990312       -34.50038
1.224                    1.00178       -35.32874
1.228                   1.003978       -36.22205
1.232                   1.005219       -37.16241
1.236                   1.005254       -38.12401
1.24                    1.004041       -39.07738
1.244                   1.001754       -39.99409
1.248                  0.9987626       -40.85159
1.252                  0.9955722        -41.6374
1.256                  0.9927426       -42.35188
1.26                   0.9907873       -43.00905
1.264                  0.9900785       -43.63467
1.268                  0.9907724       -44.26193
1.272                  0.9927728       -44.92527
1.276                  0.9957439       -45.65382
1.28                   0.9991665       -46.46587
1.284                   1.002431       -47.36559
1.288                   1.004941       -48.34249
1.292                   1.006222       -49.37326
1.296                   1.005999       -50.42561
1.3                     1.004253       -51.46338
1.304                   1.001225       -52.45224
1.308                  0.9973959       -53.36549
1.312                  0.9934022       -54.18909
1.316                  0.9899395       -54.92516
1.32                    0.987637       -55.59279
1.324                  0.9869369       -56.22566
1.328                  0.9880037       -56.86632
1.332                  0.9906837       -57.55809
1.336                  0.9945234       -58.33679
1.34                   0.9988479        -59.2238
1.344                   1.002879       -60.22242
1.348                   1.005871        -61.3175
1.352                   1.007237       -62.47815
1.356                   1.006653       -63.66272
1.36                    1.004119       -64.82501
1.364                   0.999971       -65.92146
1.368                  0.9948433       -66.91827
1.372                  0.9895753       -67.79805
1.376                   0.985078       -68.56462
1.38                   0.9821719       -69.24437
1.384                   0.981427       -69.88334
1.388                  0.9830403       -70.53928
1.392                  0.9867803       -71.27068
1.396                  0.9920161       -72.12514
1.4                    0.9978239       -73.13033
1.404                   1.003149       -74.28922
1.408                   1.006983       -75.58026
1.412                    1.00854       -76.96124
1.416                   1.007383       -78.37567
1.42                    1.003511       -79.76081
1.424                   0.997385       -81.05662
1.428                  0.9898822       -82.21541
1.432                  0.9821821       -83.21136
1.436                  0.9755868       -84.04849
1.44                   0.9712915       -84.76434
1.444                  0.9701455       -85.42693
1.448                  0.9724571       -86.12372
1.452                  0.9778967       -86.94441
1.456                  0.9855293       -87.96279
1.46                   0.9939694       -89.22263
1.464                   1.001616       -90.73096
1.468                   1.006916        -92.4586
1.472                   1.008612        -94.3461
1.476                   1.005939       -96.31208
1.48                   0.9987664       -98.26318
1.484                  0.9876624       -100.1051
1.488                  0.9738826       -101.7559
1.492                   0.959254       -103.1621
1.496                  0.9459411       -104.3165
1.5                    0.9360891       -105.2729
1.504                  0.9313816       -106.1509
1.508                  0.9326076       -107.1222
1.512                  0.9393716       -108.3792
1.516                   0.950052       -110.0964
1.52                   0.9620122       -112.4001
1.524                  0.9719809        -115.356
1.528                  0.9764706        -118.974
1.532                  0.9721465       -123.2227
1.536                  0.9561004       -128.0454
1.54                   0.9260328       -133.3724
1.544                  0.8803607       -139.1299
1.548                  0.8182671       -145.2436
1.552                  0.7397097       -151.6391
1.556                  0.6453968       -158.2383
1.56                   0.5367354       -164.9468
1.564                  0.4157608       -171.6188
1.568                  0.2850588       -177.9184
1.572                  0.1477782        177.6056
1.576                 0.01638532       -126.1954
1.58                   0.1365903       -29.60786
1.584                  0.2743852       -33.73096
1.588                  0.4059794       -39.99025
1.592                  0.5281347       -46.67862
1.596                  0.6381868       -53.42826
1.6                    0.7340112       -60.08545
1.604                  0.8141018       -66.55315
1.608                  0.8776476       -72.75162
1.612                  0.9245901       -78.60524
1.616                  0.9556544       -84.03803
1.62                   0.9723505       -88.97355
1.624                  0.9769322       -93.33842
1.628                  0.9723008       -97.07055
1.632                  0.9618335       -100.1319
1.636                  0.9491146       -102.5252
1.64                   0.9375637       -104.3107
1.644                  0.9299967       -105.6129
1.648                  0.9282096       -106.6107
1.652                   0.932723       -107.5062
1.656                  0.9427938       -108.4839
1.66                   0.9566977       -109.6745
1.664                  0.9721806         -111.14
1.668                  0.9869302       -112.8761
1.672                  0.9989635       -114.8285
1.676                   1.006882       -116.9118
1.68                    1.010008       -119.0258
1.684                   1.008405       -121.0704
1.688                   1.002822       -122.9564
1.692                  0.9945592       -124.6164
1.696                   0.985267       -126.0139
1.7                    0.9766891       -127.1509
1.704                  0.9703787       -128.0699
1.708                  0.9674302       -128.8479
1.712                  0.9682923       -129.5828
1.716                  0.9727082       -130.3723
1.72                   0.9798024       -131.2952
1.724                  0.9882856        -132.397
1.728                  0.9967156       -133.6863
1.732                   1.003754       -135.1378
1.736                   1.008374       -136.7009
1.74                    1.009994       -138.3101
1.744                   1.008538       -139.8955
1.748                   1.004421       -141.3922
1.752                  0.9984742       -142.7496
1.756                  0.9918007       -143.9388
1.76                   0.9855993       -144.9579
1.764                  0.9809599       -145.8333
1.768                   0.978672       -146.6158
1.772                  0.9790863       -147.3713
1.776                  0.9820614       -148.1675
1.78                   0.9870084       -149.0606
1.784                    0.99302       -150.0852
1.788                  0.9990494       -151.2502
1.792                   1.004098       -152.5393
1.796                   1.007379       -153.9163
1.8                      1.00843       -155.3323
1.804                    1.00717       -156.7336
1.808                   1.003902       -158.0701
1.812                  0.9992535       -159.3023
1.816                  0.9940685       -160.4076
1.82                   0.9892692       -161.3847
1.824                  0.9856953       -162.2539
1.828                  0.9839555       -163.0543
1.832                  0.9843213       -163.8364
1.836                  0.9866825       -164.6523
1.84                   0.9905783       -165.5457
1.844                  0.9952959       -166.5437
1.848                   1.000006       -167.6534
1.852                   1.003913       -168.8622
1.856                   1.006388       -170.1409
1.86                    1.007061       -171.4499
1.864                   1.005876       -172.7456
1.868                   1.003087       -173.9872
1.872                  0.9992147       -175.1427
1.876                  0.9949548       -176.1947
1.88                   0.9910602       -177.1431
1.884                    0.98821       -178.0057
1.888                  0.9868887       -178.8151
1.892                  0.9873001       -179.6129
1.896                  0.9893347        179.5584
1.9                    0.9925974        178.6638
1.904                  0.9964879        177.6816
1.908                   1.000316        176.6069
1.912                   1.003423        175.4513
1.916                   1.005295        174.2397
1.92                    1.005643        173.0063
1.924                   1.004442        171.7877
1.928                   1.001932        170.6182
1.932                  0.9985712        169.5235
1.936                  0.9949588        168.5169
1.94                   0.9917311        167.5966
1.944                  0.9894485        166.7458
1.948                  0.9884958        165.9356
1.952                  0.9890132        165.1303
1.956                  0.9908749        164.2945
1.96                    0.993717        163.3994
1.964                  0.9970117        162.4283
1.968                   1.000166         161.379
1.972                   1.002628         160.263
1.976                    1.00398        159.1033
1.98                    1.004008        157.9298
1.984                   1.002729        156.7744
1.988                   1.000384        155.6656
1.992                  0.9973981        154.6239
1.996                  0.9943013        153.6584
2                      0.9916378        152.7649
2.004                  0.9898669        151.9265
2.008                  0.9892811        151.1165
2.012                  0.9899532        150.3037
2.016                   0.991727        149.4582
2.02                   0.9942496        148.5571
2.024                  0.9970429        147.5887
2.028                  0.9995921        146.5537
2.032                   1.001439        145.4648
2.036                   1.002261        144.3438
2.04                    1.001921        143.2178
2.044                    1.00049        142.1141
2.048                  0.9982291        141.0561
2.052                   0.995542        140.0589
2.056                   0.992904         139.127
2.06                   0.9907741        138.2528
2.064                  0.9895122        137.4185
2.068                  0.9893119        136.5988
2.072                   0.990167        135.7665
2.076                  0.9918752         134.897
2.08                   0.9940811        133.9736
2.084                  0.9963451        132.9898
2.088                  0.9982272        131.9505
2.092                  0.9993669        130.8702
2.096                  0.9995457        129.7705
2.1                    0.9987228        128.6756
2.104                  0.9970396        127.6085
2.108                  0.9947916        126.5866
2.112                   0.992373        125.6185
2.116                  0.9902039        124.7027
2.12                   0.9886495        123.8272
2.124                  0.9879513        122.9723
2.128                   0.988181        122.1137
2.132                  0.9892282        121.2283
2.136                  0.9908239        120.2977
2.14                   0.9925967        119.3125
2.144                   0.994145        118.2732
2.148                  0.9951156        117.1902
2.152                  0.9952695        116.0812
2.156                  0.9945254        114.9676
2.16                   0.9929737        113.8707
2.164                  0.9908591        112.8075
2.168                  0.9885324        111.7872
2.172                  0.9863825        110.8092
2.176                  0.9847569        109.8628
2.18                   0.9838914        108.9292
2.184                  0.9838581        107.9851
2.188                  0.9845483        107.0072
2.192                  0.9856926        105.9773
2.196                  0.9869145        104.8858
2.2                    0.9878065        103.7336
2.204                  0.9880126        102.5316
2.208                  0.9873014        101.2986
2.212                  0.9856149         100.057
2.216                  0.9830862        98.82891
2.22                   0.9800181        97.63065
2.224                   0.976828        96.46893
2.228                   0.973964        95.33828
2.232                  0.9718072        94.22064
2.236                  0.9705816        93.08789
2.24                   0.9702896        91.90668
2.244                  0.9706917         90.6449
2.248                  0.9713357        89.27801
2.252                   0.971634        87.79399
2.256                  0.9709697        86.19558
2.26                    0.968814        84.49969
2.264                  0.9648324        82.73414
2.268                  0.9589603        80.93211
2.272                  0.9514339        79.12498
2.276                  0.9427653        77.33436
2.28                   0.9336579        75.56392
2.284                  0.9248648        73.79291
2.288                  0.9170083        71.97296
2.292                  0.9103907        70.03012
2.296                  0.9048375        67.87272
2.3                    0.8996163        65.40329
2.304                  0.8934505         62.5314
2.308                  0.8846298        59.18338
2.312                  0.8711862        55.30662
2.316                  0.8511005        50.86792
2.32                   0.8225043        45.84697
2.324                  0.7838561        40.22611
2.328                  0.7340837        33.97616
2.332                  0.6726931        27.03576
2.336                  0.5998635        19.27576
2.34                   0.5165604        10.42674
2.344                  0.4247723     -0.09193642
2.348                  0.3282068       -13.63592
2.352                  0.2348023       -33.71699