! TOUCHSTONE file generated by CST MICROWAVE STUDIO
! Date and time: Tue Jun 14 11:27:46 2022
! Project name: AppElm_antenne_patch_FR4.cst
! Parameters = {L=45; W=43.875; e=0.035; h=1.6; lambda=0.190476; ls=120; w0=2.54; w1=0.847; ws=120; y0=18; y1=23.8}
! Header version: 2018
! Port assignment regex: !\s*Touchstone port\s*([0-9]+)\s*=\s*(CST MWS port|CST DS port)\s*([0-9]+|Zmin|Zmax)\s*\(\"(.*)\"\)(\s*mode\s*([0-9]+))?.*
! Touchstone port assignment:
! Touchstone port 1 = CST MWS port 1 ("")
# GHz S MA R 50
0                      0.9960288              -0
0.004                  0.9962463       -7.766329
0.008                  0.9968728       -15.48925
0.012                  0.9978345        -23.1266
0.016                  0.9990183       -30.63855
0.02                    1.000285       -37.98859
0.024                   1.001487       -45.14425
0.028                   1.002486       -52.07755
0.032                   1.003167       -58.76532
0.036                   1.003454       -65.18934
0.04                     1.00332       -71.33645
0.044                   1.002787       -77.19855
0.048                   1.001926        -82.7726
0.052                   1.000848       -88.06057
0.056                  0.9996882       -93.06929
0.06                   0.9985948       -97.81007
0.064                  0.9977046       -102.2982
0.068                  0.9971284       -106.5522
0.072                  0.9969349       -110.5925
0.076                  0.9971424       -114.4402
0.08                   0.9977159       -118.1162
0.084                  0.9985714       -121.6393
0.088                  0.9995882       -125.0254
0.092                   1.000625       -128.2871
0.096                    1.00154       -131.4332
0.1                      1.00221        -134.469
0.104                   1.002546       -137.3967
0.108                   1.002507       -140.2168
0.112                   1.002106       -142.9288
0.116                   1.001407       -145.5323
0.12                    1.000515       -148.0285
0.124                  0.9995629       -150.4206
0.128                  0.9986928       -152.7143
0.132                  0.9980331       -154.9181
0.136                  0.9976803       -157.0425
0.14                   0.9976845       -159.0994
0.144                   0.998042        -161.101
0.148                  0.9986952       -163.0582
0.152                  0.9995419       -164.9801
0.156                   1.000451       -166.8726
0.16                    1.001283       -168.7382
0.164                   1.001911       -170.5765
0.168                    1.00224        -172.384
0.172                   1.002221       -174.1557
0.176                   1.001859       -175.8858
0.18                    1.001213        -177.569
0.184                   1.000386       -179.2019
0.188                  0.9995074        179.2165
0.192                  0.9987177        177.6841
0.196                  0.9981415        176.1959
0.2                    0.9978693        174.7446
0.204                  0.9979437         173.321
0.208                  0.9983509         171.916
0.212                  0.9990239        170.5214
0.216                  0.9998529        169.1312
0.22                    1.000703        167.7425
0.224                   1.001437        166.3553
0.228                   1.001937        164.9731
0.232                   1.002121        163.6014
0.236                    1.00196        162.2472
0.24                     1.00148        160.9176
0.244                    1.00076        159.6184
0.248                  0.9999164        158.3534
0.252                  0.9990873        157.1233
0.256                  0.9984085        155.9255
0.26                   0.9979916        154.7546
0.264                  0.9979052        153.6032
0.268                  0.9981634        152.4626
0.272                  0.9987227        151.3246
0.276                  0.9994904        150.1828
0.28                    1.000339        149.0333
0.284                   1.001126        147.8755
0.288                   1.001724         146.712
0.292                    1.00203        145.5484
0.296                   1.001996        144.3915
0.3                     1.001625        143.2494
0.304                   1.000979        142.1288
0.308                   1.000165        141.0348
0.312                  0.9993178        139.9697
0.316                  0.9985801        138.9323
0.32                   0.9980751        137.9182
0.324                  0.9978889        136.9208
0.328                   0.998053        135.9316
0.332                  0.9985405        134.9424
0.336                  0.9992699         133.946
0.34                    1.000118        132.9381
0.344                   1.000943        131.9171
0.348                   1.001605        130.8854
0.352                   1.001992        129.8478
0.356                    1.00204        128.8115
0.36                    1.001738        127.7848
0.364                   1.001137         126.775
0.368                   1.000337        125.7882
0.372                  0.9994731        124.8274
0.376                   0.998691        123.8924
0.38                   0.9981242        122.9795
0.384                  0.9978704        122.0822
0.388                  0.9979738        121.1922
0.392                  0.9984179        120.3011
0.396                  0.9991284        119.4013
0.4                    0.9999848        118.4878
0.404                   1.000841        117.5585
0.408                   1.001553        116.6153
0.412                   1.001997        115.6629
0.416                   1.002098        114.7086
0.42                    1.001838        113.7607
0.424                   1.001258        112.8274
0.428                   1.000456        111.9151
0.432                   0.999568        111.0276
0.436                  0.9987455        110.1651
0.44                   0.9981297        109.3243
0.444                  0.9978274         108.499
0.448                  0.9978921        107.6806
0.452                  0.9983141        106.8604
0.456                  0.9990224        106.0304
0.46                   0.9998961        105.1851
0.464                   1.000786        104.3221
0.468                   1.001538        103.4429
0.472                   1.002024        102.5523
0.476                   1.002159        101.6575
0.48                    1.001918        100.7675
0.484                   1.001339        99.89058
0.488                    1.00052        99.03386
0.492                  0.9995995        98.20146
0.496                  0.9987358        97.39403
0.5                    0.9980778        96.60838
0.504                  0.9977402        95.83814
0.508                   0.997783        95.07471
0.512                  0.9982006        94.30882
0.516                  0.9989223         93.5321
0.52                   0.9998244        92.73856
0.524                   1.000751        91.92567
0.528                   1.001543        91.09467
0.532                   1.002062        90.25047
0.536                   1.002216        89.40068
0.54                    1.001977        88.55444
0.544                   1.001383        87.72073
0.548                   1.000533        86.90701
0.552                  0.9995722        86.11777
0.556                  0.9986654        85.35382
0.56                     0.99797        84.61197
0.564                  0.9976082        83.88563
0.568                  0.9976447        83.16584
0.572                  0.9980752        82.44285
0.576                  0.9988269        81.70781
0.58                   0.9997704        80.95442
0.584                   1.000743        80.17987
0.588                   1.001575        79.38552
0.592                   1.002121        78.57645
0.596                   1.002285         77.7607
0.6                     1.002035        76.94785
0.604                   1.001411        76.14744
0.608                   1.000518        75.36732
0.612                  0.9995074        74.61229
0.616                  0.9985545        73.88318
0.62                   0.9978253        73.17668
0.624                  0.9974484         72.4858
0.628                  0.9974923        71.80106
0.632                  0.9979521        71.11214
0.636                  0.9987497        70.40974
0.64                   0.9997481        69.68719
0.644                   1.000774        68.94162
0.648                   1.001649        68.17451
0.652                   1.002219         67.3913
0.656                   1.002382        66.60058
0.66                    1.002108        65.81254
0.664                   1.001438        65.03726
0.668                   1.000486        64.28304
0.672                  0.9994155        63.55487
0.676                  0.9984105        62.85359
0.68                   0.9976476        62.17555
0.684                  0.9972623        61.51321
0.688                  0.9973249        60.85647
0.692                  0.9978282        60.19433
0.696                  0.9986865        59.51697
0.7                    0.9997518        58.81739
0.704                   1.000839        58.09271
0.708                   1.001758        57.34466
0.712                   1.002347        56.57924
0.716                   1.002499        55.80569
0.72                    1.002185        55.03491
0.724                   1.001453        54.27763
0.728                   1.000426        53.54262
0.732                  0.9992807        52.83505
0.736                  0.9982154        52.15556
0.74                    0.997417        51.50011
0.744                  0.9970278        50.86046
0.748                  0.9971199        50.22567
0.752                  0.9976806        49.58399
0.756                  0.9986148        48.92497
0.76                   0.9997609        48.24133
0.764                   1.000919        47.53027
0.768                   1.001885        46.79388
0.772                   1.002489        46.03884
0.776                    1.00262        45.27521
0.78                     1.00225        44.51478
0.784                   1.001437          43.769
0.788                   1.000318        43.04711
0.792                  0.9990843        42.35444
0.796                  0.9979495        41.69141
0.8                     0.997114        41.05334
0.804                  0.9967268        40.43112
0.808                  0.9968606        39.81286
0.812                  0.9974956        39.18587
0.816                  0.9985242        38.53903
0.82                   0.9997678        37.86477
0.824                   1.001009        37.16039
0.828                   1.002029        36.42852
0.832                   1.002646         35.6767
0.836                   1.002747        34.91598
0.84                    1.002307        34.15916
0.844                   1.001396        33.41857
0.848                   1.000166        32.70396
0.852                  0.9988281        32.02079
0.856                  0.9976148        31.36915
0.86                   0.9967402        30.74356
0.864                  0.9963621        30.13389
0.868                  0.9965517        29.52702
0.872                  0.9972812        28.90921
0.876                  0.9984264        28.26856
0.88                   0.9997886        27.59719
0.884                   1.001129        26.89258
0.888                   1.002212        26.15805
0.892                   1.002843        25.40215
0.896                   1.002905        24.63716
0.9                     1.002379        23.87708
0.904                   1.001349        23.13524
0.908                  0.9999868        22.42201
0.912                  0.9985261        21.74296
0.916                  0.9972214        21.09772
0.92                   0.9963043        20.47989
0.924                   0.995941        19.87802
0.928                  0.9962022        19.27758
0.932                  0.9970483        18.66353
0.936                  0.9983355        18.02309
0.94                   0.9998408          17.348
0.944                     1.0013        16.63603
0.948                   1.002456        15.89134
0.952                   1.003101         15.1237
0.956                   1.003114        14.34688
0.96                    1.002482         13.5763
0.964                   1.001307        12.82649
0.968                   0.999784        12.10854
0.972                  0.9981746        11.42814
0.976                  0.9967599        10.78437
0.98                   0.9957918         10.1697
0.984                  0.9954471        9.571089
0.988                  0.9957949        8.972279
0.992                  0.9967817        8.356689
0.996                    0.99824        7.710445
1                      0.9999171        7.024894
1.004                   1.001519        6.298133
1.008                   1.002761        5.535316
1.012                    1.00342        4.747737
1.016                    1.00337         3.95093
1.02                    1.002608        3.162072
1.024                   1.001253         2.39712
1.028                  0.9995318        1.668067
1.032                  0.9977383       0.9807554
1.036                  0.9961863       0.3336266
1.04                    0.995153      -0.2822622
1.044                  0.9948282      -0.8818609
1.048                  0.9952792       -1.483547
1.052                   0.996436       -2.105809
1.056                  0.9981024        -2.76386
1.06                    0.999989       -3.466872
1.064                   1.001764       -4.216363
1.068                   1.003113       -5.005962
1.072                    1.00379       -5.822538
1.076                   1.003664       -6.648396
1.08                    1.002739       -7.464208
1.084                   1.001162       -8.252224
1.088                  0.9991925       -8.999283
1.092                  0.9971678       -9.699323
1.096                  0.9954414       -10.35464
1.1                     0.994322       -10.97586
1.104                  0.9940174       -11.58036
1.108                  0.9945934       -12.18912
1.112                  0.9959602       -12.82307
1.116                  0.9978858       -13.49909
1.12                    1.000036       -14.22711
1.124                   1.002033       -15.00821
1.128                    1.00352       -15.83454
1.132                   1.004226       -16.69072
1.136                   1.004008       -17.55636
1.14                    1.002884       -18.40943
1.144                   1.001028       -19.22984
1.148                  0.9987453       -20.00293
1.152                  0.9964244       -20.72219
1.156                  0.9944706       -21.39079
1.16                   0.9932348       -22.02144
1.164                  0.9929485       -22.63447
1.168                   0.993678       -23.25429
1.172                  0.9953099       -23.90496
1.176                  0.9975679       -24.60571
1.18                    1.000061       -25.36741
1.184                    1.00235       -26.19074
1.188                   1.004027       -27.06609
1.192                   1.004781       -27.97524
1.196                   1.004458       -28.89439
1.2                     1.003084       -29.79795
1.204                    1.00087       -30.66277
1.208                  0.9981768       -31.47202
1.212                  0.9954612       -32.21845
1.216                  0.9931971       -32.90615
1.22                   0.9917928       -33.55041
1.224                   0.991514       -34.17543
1.228                  0.9924317       -34.81017
1.232                  0.9944046       -35.48292
1.236                  0.9970999       -36.21615
1.24                    1.000051        -37.0223
1.244                    1.00274       -37.90165
1.248                   1.004684       -38.84244
1.252                    1.00552       -39.82283
1.256                    1.00507       -40.81451
1.26                     1.00337       -41.78713
1.264                   1.000674        -42.7132
1.268                  0.9974168       -43.57273
1.272                  0.9941454       -44.35711
1.276                  0.9914296       -45.07133
1.28                   0.9897603       -45.73392
1.284                  0.9894566       -46.37433
1.288                  0.9906024       -47.02777
1.292                  0.9930233        -47.7287
1.296                   0.996313       -48.50433
1.3                    0.9999025       -49.36964
1.304                    1.00316       -50.32482
1.308                   1.005497       -51.35537
1.312                   1.006472       -52.43471
1.316                   1.005863       -53.52834
1.32                    1.003713       -54.59916
1.324                   1.000329       -55.61329
1.328                  0.9962445       -56.54578
1.332                  0.9921349       -57.38537
1.336                  0.9887107       -58.13772
1.34                   0.9865899       -58.82556
1.344                  0.9861812       -59.48573
1.348                  0.9875992       -60.16277
1.352                   0.990632        -60.9006
1.356                  0.9947724       -61.73413
1.36                   0.9993037       -62.68281
1.364                   1.003424       -63.74736
1.368                   1.006381       -64.91003
1.372                   1.007602       -66.13761
1.376                   1.006787       -67.38668
1.38                    1.003969       -68.61002
1.384                   0.999522       -69.76364
1.388                  0.9941148       -70.81399
1.392                  0.9886182       -71.74458
1.396                   0.983966       -72.56062
1.4                    0.9809917        -73.2904
1.404                  0.9802683       -73.98197
1.408                  0.9819846       -74.69512
1.412                  0.9858939       -75.49005
1.416                  0.9913434       -76.41556
1.42                   0.9973849       -77.50012
1.424                   1.002937       -78.74705
1.428                   1.006965       -80.13488
1.432                   1.008654        -81.6211
1.436                   1.007541        -83.1487
1.44                    1.003601       -84.65396
1.444                  0.9972731       -86.07531
1.448                  0.9894257        -87.3628
1.452                  0.9812447       -88.48777
1.456                  0.9740612       -89.45117
1.46                   0.9691253       -90.28798
1.464                   0.967363       -91.06526
1.468                   0.969172       -91.87174
1.472                  0.9743083        -92.8012
1.476                  0.9819018       -93.93374
1.48                   0.9905969       -95.32061
1.484                  0.9987799       -96.97651
1.488                   1.004841       -98.87932
1.492                   1.007424       -100.9755
1.496                    1.00563       -103.1882
1.5                    0.9991666       -105.4265
1.504                  0.9884284       -107.5961
1.508                   0.974504       -109.6116
1.512                  0.9590917       -111.4108
1.516                  0.9443059        -112.973
1.52                   0.9323626        -114.335
1.524                  0.9251648       -115.6006
1.528                  0.9238609       -116.9339
1.532                  0.9285024       -118.5334
1.536                  0.9379203       -120.5947
1.54                    0.949863       -123.2762
1.544                  0.9613343       -126.6809
1.548                  0.9690123       -130.8581
1.552                  0.9696408       -135.8168
1.556                  0.9603382       -141.5459
1.56                   0.9388161       -148.0328
1.564                  0.9035272       -155.2815
1.568                  0.8537684       -163.3319
1.572                  0.7897689       -172.2859
1.576                  0.7128132        177.6499
1.58                   0.6254748        166.0855
1.584                  0.5321478        152.3012
1.588                  0.4402747        135.0064
1.592                  0.3628331         112.236
1.596                  0.3203584        82.88356
1.6                    0.3311574        51.14123
1.604                  0.3900313        24.19841
1.608                  0.4753273        3.761097
1.612                  0.5692761       -12.01621
1.616                  0.6613652       -24.87251
1.62                   0.7454881       -35.84659
1.624                  0.8179885       -45.50759
1.628                  0.8767713       -54.16136
1.632                   0.920924       -61.96608
1.636                  0.9505455       -68.99385
1.64                   0.9666518       -75.26525
1.644                  0.9710919       -80.77178
1.648                  0.9664417        -85.4941
1.652                  0.9558355       -89.42098
1.656                  0.9427152       -92.57011
1.66                    0.930476       -95.00808
1.664                  0.9220296       -96.86286
1.668                  0.9193654       -98.31877
1.672                  0.9232398        -99.5899
1.676                  0.9331181        -100.879
1.68                   0.9474007       -102.3389
1.684                  0.9638487       -104.0521
1.688                  0.9800619       -106.0312
1.692                  0.9938902       -108.2329
1.696                    1.00372       -110.5777
1.7                     1.008638       -112.9673
1.704                   1.008482        -115.299
1.708                   1.003811       -117.4776
1.712                  0.9957989       -119.4259
1.716                  0.9860591       -121.0943
1.72                   0.9764086       -122.4701
1.724                  0.9685855       -123.5823
1.728                    0.96396       -124.4997
1.732                  0.9632969       -125.3201
1.736                  0.9666313       -126.1506
1.74                   0.9732937       -127.0862
1.744                  0.9820779       -128.1921
1.748                   0.991494       -129.4946
1.752                   1.000046       -130.9825
1.756                   1.006469       -132.6135
1.76                     1.00991       -134.3248
1.764                   1.010018       -136.0437
1.768                   1.006971        -137.698
1.772                   1.001435       -139.2251
1.776                  0.9944427        -140.581
1.78                   0.9872437       -141.7471
1.784                  0.9810951       -142.7345
1.788                  0.9770516       -143.5835
1.792                  0.9757812       -144.3572
1.796                  0.9774485       -145.1294
1.8                    0.9816999       -145.9702
1.804                  0.9877481       -146.9322
1.808                  0.9945342       -148.0427
1.812                   1.000927       -149.3007
1.816                   1.005911       -150.6801
1.82                    1.008748       -152.1364
1.824                   1.009068       -153.6143
1.828                   1.006919       -155.0565
1.832                   1.002739       -156.4112
1.836                  0.9972885       -157.6404
1.84                   0.9915259       -158.7254
1.844                  0.9864484       -159.6706
1.848                  0.9829254        -160.504
1.852                  0.9815446       -161.2721
1.856                  0.9825094       -162.0322
1.86                   0.9856088       -162.8406
1.864                  0.9902669       -163.7421
1.868                  0.9956599       -164.7625
1.872                    1.00087       -165.9051
1.876                   1.005044       -167.1522
1.88                    1.007529       -168.4695
1.884                   1.007966        -169.812
1.888                   1.006342       -171.1319
1.892                   1.002976       -172.3848
1.896                  0.9984703       -173.5368
1.9                    0.9936108       -174.5701
1.904                  0.9892362       -175.4859
1.908                   0.986096       -176.3052
1.912                  0.9847188       -177.0657
1.916                  0.9853186       -177.8143
1.92                   0.9877602       -178.5991
1.924                  0.9915906       -179.4594
1.928                  0.9961293        179.5806
1.932                   1.000595        178.5155
1.936                   1.004243        177.3582
1.94                    1.006483         176.137
1.944                   1.006976        174.8899
1.948                   1.005675        173.6585
1.952                    1.00283        172.4822
1.956                  0.9989433        171.3916
1.96                   0.9946909        170.4038
1.964                  0.9908056        169.5192
1.968                  0.9879544        168.7206
1.972                  0.9866207        167.9765
1.976                  0.9870183         167.246
1.98                   0.9890543        166.4869
1.984                  0.9923519        165.6637
1.988                   0.996324        164.7538
1.992                   1.000282        163.7508
1.996                   1.003556        162.6648
2                       1.005607          161.52
2.004                   1.006113        160.3497
2.008                   1.005011        159.1916
2.012                   1.002509        158.0811
2.016                  0.9990454        157.0464
2.02                   0.9952202        156.1037
2.024                  0.9916937        155.2542
2.028                  0.9890724        154.4832
2.032                  0.9878035        153.7629
2.036                  0.9880944        153.0567
2.04                    0.989876        152.3266
2.044                  0.9928193        151.5398
2.048                  0.9963995        150.6751
2.052                  0.9999925         149.726
2.056                   1.002985        148.7008
2.06                    1.004877         147.621
2.064                   1.005363         146.517
2.068                   1.004377        145.4231
2.072                     1.0021        144.3721
2.076                  0.9989296        143.3904
2.08                   0.9954142         142.493
2.084                  0.9921607        141.6815
2.088                  0.9897312        140.9427
2.092                  0.9885419         140.251
2.096                  0.9887897         139.573
2.1                    0.9904168        138.8734
2.104                  0.9931234        138.1219
2.108                  0.9964264        137.2986
2.112                  0.9997474         136.397
2.116                   1.002516        135.4247
2.12                    1.004264        134.4014
2.124                   1.004704        133.3554
2.128                   1.003772        132.3188
2.132                   1.001636        131.3224
2.136                  0.9986663        130.3906
2.14                   0.9953778        129.5377
2.144                  0.9923383         128.765
2.148                  0.9900743        128.0601
2.152                   0.988975        127.3991
2.156                  0.9892242        126.7504
2.16                   0.9907657         126.081
2.164                  0.9933167        125.3626
2.168                  0.9964207        124.5762
2.172                  0.9995323         123.716
2.176                   1.002113        122.7893
2.18                    1.003723        121.8148
2.184                   1.004093        120.8193
2.188                   1.003167        119.8334
2.192                   1.001107        118.8861
2.196                  0.9982715        118.0005
2.2                     0.995149        117.1898
2.204                    0.99228        116.4549
2.208                   0.990162        115.7835
2.212                  0.9891608        115.1527
2.216                  0.9894434        114.5323
2.22                   0.9909494        113.8909
2.224                  0.9934025        113.2017
2.228                  0.9963628        112.4471
2.232                  0.9993078        111.6218
2.236                   1.001725        110.7333
2.24                    1.003198        109.7999
2.244                   1.003478        108.8476
2.248                    1.00252        107.9055
2.252                   1.000488        107.0016
2.256                  0.9977339        106.1575
2.26                   0.9947321        105.3855
2.264                  0.9920021        104.6856
2.268                  0.9900173        104.0455
2.272                  0.9891208        103.4426
2.276                  0.9894621        102.8476
2.28                   0.9909704        102.2304
2.284                  0.9933688        101.5654
2.288                  0.9962261        100.8365
2.292                  0.9990361        100.0392
2.296                   1.001307        99.18135
2.3                     1.002644        98.28121
2.304                   1.002817         97.3643
2.308                   1.001796        96.45897
2.312                  0.9997558        95.59195
2.316                  0.9970452        94.78386
2.32                   0.9941309        94.04566
2.324                  0.9915172        93.37662
2.328                  0.9896573        92.76395
2.332                  0.9888722        92.18491
2.336                   0.989292        91.61092
2.34                   0.9908316        91.01277
2.344                  0.9932082        90.36617
2.348                  0.9959934        89.65608
2.352                  0.9986915        88.87914