! TOUCHSTONE file generated by CST MICROWAVE STUDIO
! Date and time: Tue Jun 14 11:27:56 2022
! Project name: AppElm_antenne_patch_FR4.cst
! Parameters = {L=45; W=73.125; e=0.035; h=1.6; lambda=0.190476; ls=120; w0=2.54; w1=0.847; ws=120; y0=18; y1=23.8}
! Header version: 2018
! Port assignment regex: !\s*Touchstone port\s*([0-9]+)\s*=\s*(CST MWS port|CST DS port)\s*([0-9]+|Zmin|Zmax)\s*\(\"(.*)\"\)(\s*mode\s*([0-9]+))?.*
! Touchstone port assignment:
! Touchstone port 1 = CST MWS port 1 ("")
# GHz S MA R 50
0                      0.9673386              -0
0.004                  0.9692196        -11.9744
0.008                  0.9745917       -23.78933
0.012                  0.9826911       -35.29927
0.016                  0.9923962       -46.38273
0.02                    1.002413       -56.94632
0.024                   1.011467       -66.92343
0.028                   1.018475       -76.26962
0.032                   1.022673       -84.95711
0.036                   1.023687       -92.97044
0.04                    1.021571       -100.3039
0.044                   1.016774       -106.9614
0.048                   1.010086       -112.9583
0.052                   1.002524       -118.3245
0.056                  0.9951947       -123.1075
0.06                   0.9891348       -127.3732
0.064                  0.9851556       -131.2043
0.068                  0.9837196       -134.6939
0.072                  0.9848751       -137.9365
0.076                  0.9882654       -141.0167
0.08                   0.9932099        -144.001
0.084                  0.9988345       -146.9318
0.088                   1.004223       -149.8271
0.092                   1.008563       -152.6831
0.096                   1.011253       -155.4795
0.1                     1.011985       -158.1863
0.104                   1.010762       -160.7701
0.108                   1.007887       -163.2007
0.112                   1.003905       -165.4566
0.116                  0.9995097       -167.5297
0.12                   0.9954349       -169.4274
0.124                  0.9923339       -171.1729
0.128                  0.9906737       -172.8023
0.132                  0.9906622       -174.3591
0.136                  0.9922214       -175.8875
0.14                   0.9950136       -177.4246
0.144                  0.9985117       -178.9956
0.148                   1.002098        179.3894
0.152                   1.005175        177.7351
0.156                   1.007254         176.059
0.16                    1.008038        174.3871
0.164                   1.007449        172.7488
0.168                   1.005639        171.1726
0.172                   1.002955        169.6806
0.176                  0.9998768        168.2857
0.18                   0.9969369        166.9885
0.184                  0.9946301        165.7775
0.188                  0.9933295        164.6305
0.192                  0.9932239        163.5188
0.196                  0.9942907        162.4118
0.2                    0.9963055        161.2829
0.204                  0.9988889        160.1134
0.208                   1.001579        158.8957
0.212                   1.003912        157.6336
0.216                   1.005503        156.3406
0.22                    1.006104        155.0377
0.224                   1.005642         153.749
0.228                   1.004224        152.4979
0.232                   1.002117        151.3033
0.236                   0.999696        150.1763
0.24                   0.9973866        149.1187
0.244                  0.9955845        148.1218
0.248                  0.9945903        147.1687
0.252                  0.9945578        146.2369
0.256                  0.9954694        145.3022
0.26                   0.9971432        144.3435
0.264                  0.9992687        143.3461
0.268                   1.001466        142.3041
0.272                   1.003355         141.221
0.276                   1.004617        140.1088
0.28                    1.005048        138.9851
0.284                   1.004592        137.8706
0.288                   1.003346        136.7851
0.292                    1.00154        135.7446
0.296                  0.9994942        134.7585
0.3                    0.9975707        133.8276
0.304                  0.9961024        132.9446
0.308                  0.9953392        132.0947
0.312                  0.9954029        131.2586
0.316                  0.9962681        130.4158
0.32                   0.9977682        129.5486
0.324                  0.9996292         128.645
0.328                   1.001519        127.7007
0.332                   1.003109        126.7194
0.336                   1.004127        125.7121
0.34                    1.004406        124.6949
0.344                   1.003909         123.686
0.348                   1.002734         122.703
0.352                   1.001093        121.7595
0.356                  0.9992789        120.8632
0.36                   0.9976116        120.0142
0.364                  0.9963825        119.2051
0.368                   0.995803        118.4221
0.372                  0.9959681        117.6479
0.376                  0.9968389        116.8642
0.38                   0.9982531        116.0558
0.384                  0.9999542        115.2124
0.388                    1.00164        114.3312
0.392                   1.003015        113.4165
0.396                   1.003843         112.479
0.4                     1.003986        111.5338
0.404                   1.003425        110.5978
0.408                   1.002266        109.6866
0.412                   1.000715        108.8123
0.416                  0.9990489         107.981
0.42                   0.9975608        107.1918
0.424                  0.9965122        106.4371
0.428                  0.9960851        105.7035
0.432                  0.9963497        104.9746
0.436                  0.9972529        104.2339
0.44                   0.9986287        103.4676
0.444                   1.000229        102.6673
0.448                    1.00177        101.8312
0.452                    1.00298        100.9644
0.456                   1.003651        100.0777
0.46                    1.003667        99.18569
0.464                   1.003031        98.30427
0.468                   1.001858        97.44793
0.472                   1.000357        96.62716
0.476                  0.9987941        95.84678
0.48                   0.9974454        95.10493
0.484                  0.9965492        94.39331
0.488                  0.9962627        93.69868
0.492                  0.9966333        93.00517
0.496                  0.9975912        92.29731
0.5                    0.9989628         91.5627
0.504                   1.000502        90.79433
0.508                   1.001935        89.99163
0.512                   1.003009        89.16053
0.516                   1.003537        88.31217
0.52                    1.003429        87.46105
0.524                   1.002704        86.62238
0.528                   1.001493        85.80966
0.532                   1.000009         85.0322
0.536                  0.9985161        84.29353
0.54                   0.9972782        83.59068
0.544                   0.996515        82.91463
0.548                  0.9963614        82.25182
0.552                   0.996843        81.58674
0.556                  0.9978715        80.90464
0.56                   0.9992619        80.19427
0.564                   1.000766        79.44992
0.568                   1.002115        78.67221
0.572                   1.003072        77.86802
0.576                   1.003469        77.04905
0.58                    1.003236        76.22986
0.584                   1.002414        75.42532
0.588                    1.00115        74.64805
0.592                  0.9996651        73.90629
0.596                  0.9982241        73.20229
0.6                    0.9970829        72.53189
0.604                  0.9964447        71.88521
0.608                  0.9964236        71.24823
0.612                  0.9970227        70.60551
0.616                  0.9981338        69.94292
0.62                   0.9995578        69.25026
0.624                    1.00104        68.52303
0.628                   1.002317        67.76316
0.632                   1.003162        66.97857
0.636                   1.003425         66.1817
0.64                    1.003059        65.38735
0.644                   1.002127        64.61012
0.648                   1.000793        63.86194
0.652                   0.999292        63.14992
0.656                  0.9978905        62.47505
0.66                   0.9968386        61.83189
0.664                  0.9963253        61.20946
0.668                  0.9964428        60.59318
0.672                  0.9971712         59.9675
0.676                    0.99838        59.31881
0.68                   0.9998534        58.63786
0.684                   1.001328        57.92149
0.688                   1.002542        57.17294
0.692                   1.003278        56.40133
0.696                   1.003405        55.61998
0.7                     1.002898        54.84405
0.704                   1.001844        54.08802
0.708                   1.000428        53.36315
0.712                  0.9988986        52.67545
0.716                  0.9975282        52.02455
0.72                    0.996562        51.40362
0.724                  0.9961745        50.80047
0.728                  0.9964367        50.19977
0.732                   0.997303        49.58582
0.736                   0.998619        48.94546
0.74                     1.00015        48.27046
0.744                   1.001622        47.55894
0.748                   1.002773        46.81564
0.752                   1.003396        46.05101
0.756                   1.003377        45.27931
0.76                    1.002718        44.51624
0.764                    1.00153        43.77616
0.768                   1.000021        43.06966
0.772                  0.9984568         42.4016
0.776                  0.9971173        41.77011
0.78                   0.9962427        41.16681
0.784                  0.9959926        40.57817
0.788                  0.9964147        39.98798
0.792                  0.9974356        39.38031
0.796                   0.998874        38.74246
0.8                     1.000473        38.06725
0.804                   1.001948        37.35425
0.808                   1.003033        36.60983
0.812                   1.003533        35.84591
0.816                   1.003355         35.0779
0.82                    1.002525        34.32208
0.824                   1.001184        33.59276
0.828                  0.9995671        32.89986
0.832                  0.9979587        32.24694
0.836                  0.9966465        31.63052
0.84                   0.9958674        31.04047
0.844                  0.9957649        30.46177
0.848                  0.9963612        29.87719
0.852                  0.9975524         29.2705
0.856                  0.9991274        28.62947
0.86                    1.000805        27.94805
0.864                   1.002285        27.22743
0.868                   1.003302        26.47572
0.872                   1.003671         25.7065
0.876                    1.00332        24.93645
0.88                    1.002305        24.18253
0.884                   1.000798        23.45903
0.888                  0.9990643        22.77507
0.892                  0.9974091        22.13285
0.896                  0.9961298        21.52706
0.9                    0.9954591        20.94564
0.904                  0.9955224        20.37185
0.908                  0.9963133        19.78737
0.912                   0.997694        19.17563
0.916                  0.9994194        18.52495
0.92                    1.001181        17.83056
0.924                   1.002664        17.09544
0.928                   1.003599        16.32971
0.932                   1.003815         15.5488
0.936                   1.003263        14.77083
0.94                    1.002034        14.01354
0.944                   1.000337        13.29119
0.948                  0.9984679        12.61204
0.952                  0.9967584         11.9767
0.956                  0.9955165        11.37777
0.96                   0.9949701        10.80095
0.964                  0.9952245        10.22758
0.968                  0.9962406        9.638019
0.972                  0.9978414        9.015337
0.976                  0.9997436        8.348424
0.98                    1.001608         7.63398
0.984                   1.003099        6.877026
0.988                   1.003947        6.089931
0.992                   1.003993        5.290263
0.996                   1.003218        4.497792
1                       1.001747        3.731157
1.004                  0.9998334        3.004637
1.008                  0.9978097         2.32554
1.012                  0.9960364        1.692669
1.016                  0.9948343        1.096238
1.02                   0.9944261       0.5194186
1.024                  0.9948939     -0.05868756
1.028                  0.9961613      -0.6591842
1.032                  0.9980072       -1.299429
1.036                   1.000104       -1.989831
1.04                    1.002076       -2.732017
1.044                   1.003568       -3.518634
1.048                   1.004308       -4.334711
1.052                   1.004151        -5.16024
1.056                   1.003112       -5.973543
1.06                     1.00136       -6.754932
1.064                  0.9991941       -7.490127
1.068                   0.996994       -8.172948
1.072                  0.9951526       -8.806726
1.076                  0.9940056       -9.404095
1.08                   0.9937694        -9.98488
1.084                  0.9944984       -10.57263
1.088                  0.9960723       -11.19022
1.092                  0.9982159        -11.8555
1.096                   1.000549         -12.578
1.1                     1.002655       -13.35746
1.104                   1.004151       -14.18367
1.108                   1.004761       -15.03856
1.112                   1.004359       -15.89922
1.116                   1.002998       -16.74163
1.12                    1.000898       -17.54475
1.124                  0.9984183       -18.29419
1.128                  0.9959909       -18.98507
1.132                  0.9940505       -19.62323
1.136                  0.9929529       -20.22465
1.14                   0.9929082       -20.81288
1.144                  0.9939388       -21.41469
1.148                  0.9958719       -22.05512
1.152                  0.9983688       -22.75271
1.156                   1.000986       -23.51609
1.16                    1.003253       -24.34259
1.164                   1.004757       -25.21877
1.168                   1.005215       -26.12285
1.172                   1.004523       -27.02831
1.176                   1.002776       -27.90827
1.18                    1.000261          -28.74
1.184                   0.997405       -29.50895
1.188                  0.9947092       -30.21171
1.192                  0.9926591       -30.85722
1.196                  0.9916356        -31.4657
1.2                    0.9918419        -32.0653
1.204                  0.9932604        -32.6869
1.208                  0.9956521        -33.3583
1.212                  0.9985976       -34.09888
1.216                   1.001572       -34.91614
1.22                    1.004039       -35.80445
1.224                   1.005543        -36.7462
1.228                   1.005791       -37.71484
1.232                   1.004704       -38.67921
1.236                   1.002436       -39.60862
1.24                   0.9993525       -40.47792
1.244                  0.9959752       -41.27211
1.248                  0.9928956       -41.98958
1.252                  0.9906705        -42.6432
1.256                  0.9897187       -43.25881
1.26                   0.9902378       -43.87076
1.264                  0.9921611       -44.51563
1.268                  0.9951639       -45.22509
1.272                  0.9987196       -46.02001
1.276                   1.002194       -46.90654
1.28                    1.004957        -47.8754
1.284                   1.006494       -48.90356
1.288                   1.006491       -49.95817
1.292                   1.004898       -51.00178
1.296                    1.00194       -51.99831
1.3                    0.9980893         -52.919
1.304                  0.9939942       -53.74786
1.308                  0.9903728        -54.4853
1.312                  0.9878845       -55.14946
1.316                  0.9870059       -55.77381
1.32                   0.9879329       -56.40158
1.324                  0.9905334       -57.07745
1.328                  0.9943646        -57.8389
1.332                  0.9987487       -58.70901
1.336                   1.002894       -59.69237
1.34                    1.006036       -60.77461
1.344                   1.007564       -61.92511
1.348                   1.007133       -63.10197
1.352                   1.004726       -64.25841
1.356                   1.000668       -65.35006
1.36                   0.9955894       -66.34221
1.364                  0.9903307       -67.21664
1.368                  0.9858097       -67.97634
1.372                  0.9828557       -68.64723
1.376                  0.9820482       -69.27498
1.38                   0.9835929       -69.91725
1.384                  0.9872639       -70.63252
1.388                  0.9924346       -71.46843
1.392                  0.9981843       -72.45259
1.396                   1.003462       -73.58795
1.4                     1.007265       -74.85282
1.404                   1.008816       -76.20495
1.408                   1.007686       -77.58806
1.412                   1.003887       -78.93981
1.416                  0.9978848       -80.20102
1.42                   0.9905564       -81.32517
1.424                  0.9830702       -82.28783
1.428                   0.976703       -83.09425
1.432                  0.9726122       -83.78252
1.436                  0.9716011       -84.42007
1.44                   0.9739324       -85.09215
1.444                  0.9792433       -85.88499
1.448                  0.9865862       -86.86805
1.452                  0.9945911        -88.0806
1.456                     1.0017       -89.52568
1.46                    1.006431       -91.17118
1.464                   1.007614       -92.95576
1.468                   1.004586       -94.79763
1.472                    0.99732       -96.60454
1.476                  0.9864776       -98.28558
1.48                   0.9733781       -99.76474
1.484                  0.9598617       -100.9971
1.488                  0.9480348       -101.9858
1.492                  0.9398991       -102.7941
1.496                  0.9369166       -103.5462
1.5                    0.9396117       -104.4099
1.504                  0.9473366        -105.564
1.508                  0.9582857       -107.1617
1.512                  0.9697398       -109.3046
1.516                  0.9784518       -112.0335
1.52                   0.9810496       -115.3345
1.524                   0.974383       -119.1512
1.528                  0.9557815       -123.3971
1.532                  0.9232279       -127.9623
1.536                  0.8754706       -132.7136
1.54                   0.8120914       -137.4837
1.544                  0.7335645       -142.0449
1.548                   0.641342       -146.0499
1.552                  0.5380772       -148.8957
1.556                  0.4282908       -149.3849
1.56                   0.3205622         -144.84
1.564                  0.2347457       -129.5136
1.568                   0.212192       -100.7277
1.572                  0.2710746       -77.51375
1.576                   0.371112       -68.30294
1.58                   0.4812785        -66.6798
1.584                  0.5885919       -68.53104
1.588                  0.6868933       -72.05767
1.592                   0.772706        -76.4125
1.596                  0.8440106       -81.14039
1.6                     0.899856       -85.96202
1.604                  0.9402219       -90.68364
1.608                  0.9659527       -95.15678
1.612                  0.9786955       -99.26085
1.616                  0.9808109       -102.8981
1.62                   0.9752284       -105.9974
1.624                  0.9652297       -108.5238
1.628                  0.9541412       -110.4914
1.632                  0.9449527       -111.9725
1.636                  0.9399154       -113.0964
1.64                   0.9402229       -114.0311
1.644                  0.9458858       -114.9501
1.648                  0.9558565        -115.998
1.652                  0.9683637        -117.265
1.656                  0.9813412         -118.78
1.66                   0.9928354       -120.5182
1.664                   1.001314       -122.4164
1.668                   1.005855       -124.3895
1.672                   1.006223        -126.346
1.676                   1.002845       -128.2002
1.68                   0.9967114       -129.8836
1.684                  0.9891994       -131.3539
1.688                   0.981844       -132.6029
1.692                  0.9760765       -133.6585
1.696                  0.9729723       -134.5813
1.7                    0.9730602       -135.4532
1.704                  0.9762429       -136.3599
1.708                  0.9818488       -137.3735
1.712                  0.9887979       -138.5392
1.716                  0.9958323       -139.8694
1.72                    1.001756       -141.3454
1.724                   1.005637       -142.9243
1.728                   1.006943       -144.5484
1.732                   1.005607        -146.155
1.736                    1.00202       -147.6865
1.74                   0.9969469       -149.0992
1.744                  0.9913957       -150.3706
1.748                  0.9864346       -151.5034
1.752                  0.9829979       -152.5268
1.756                  0.9817103       -153.4905
1.76                   0.9827696       -154.4553
1.764                  0.9859171       -155.4804
1.768                   0.990503       -156.6112
1.772                  0.9956257       -157.8715
1.776                   1.000314         -159.26
1.78                    1.003708       -160.7529
1.784                   1.005207       -162.3094
1.788                   1.004566       -163.8797
1.792                   1.001933       -165.4131
1.796                  0.9978184        -166.867
1.8                    0.9930037        -168.214
1.804                  0.9884046       -169.4479
1.808                   0.984899       -170.5856
1.812                  0.9831557       -171.6656
1.816                  0.9834977       -172.7402
1.82                    0.985833       -173.8655
1.824                  0.9896724       -175.0895
1.828                   0.994228       -176.4426
1.832                  0.9985692       -177.9324
1.836                     1.0018       -179.5433
1.84                    1.003225        178.7595
1.844                    1.00247        177.0234
1.848                  0.9995579        175.3006
1.852                  0.9949091        173.6385
1.856                   0.989283        172.0716
1.86                   0.9836525        170.6134
1.864                  0.9790296        169.2513
1.868                  0.9762661        167.9465
1.872                  0.9758707        166.6391
1.876                  0.9778843        165.2594
1.88                   0.9818496        163.7411
1.884                  0.9868842        162.0352
1.888                  0.9918406        160.1184
1.892                  0.9955133        157.9959
1.896                  0.9968513        155.6993
1.9                    0.9951422          153.28
1.904                  0.9901447        150.8009
1.908                  0.9821522        148.3256
1.912                  0.9719818        145.9075
1.916                  0.9608748        143.5764
1.92                   0.9503097        141.3271
1.924                  0.9417349        139.1096
1.928                  0.9362586        136.8283
1.932                  0.9343604        134.3503
1.936                  0.9357043        131.5248
1.94                   0.9391117        128.2057
1.944                  0.9427037        124.2708
1.948                  0.9441664        119.6306
1.952                  0.9410657        114.2262
1.956                  0.9311539        108.0189
1.96                   0.9126283        100.9755
1.964                  0.8843389         93.0521
1.968                  0.8459557        84.17723
1.972                  0.7981192        74.23355
1.976                  0.7426022        63.03891
1.98                   0.6825099        50.33146
1.984                  0.6225177        35.77977
1.988                  0.5690185        19.07004
1.992                  0.5297337       0.1522434
1.996                  0.5119849       -20.38252
2                      0.5195431       -41.19367
2.004                  0.5503807        -60.7853
2.008                  0.5978818       -78.27831
2.012                  0.6540833       -93.53557
2.016                  0.7119953       -106.8127
2.02                   0.7663557       -118.4477
2.024                  0.8135903       -128.7257
2.028                  0.8515796         -137.85
2.032                  0.8794429       -145.9515
2.036                  0.8973692       -153.1078
2.04                   0.9064669       -159.3632
2.044                  0.9085984       -164.7476
2.048                  0.9061725       -169.2962
2.052                  0.9018646       -173.0681
2.056                  0.8982713       -176.1611
2.06                    0.897528       -178.7164
2.064                  0.9009693        179.0918
2.068                  0.9089309        177.0806
2.072                  0.9207625        175.0895
2.076                  0.9350491        173.0056
2.08                    0.949961        170.7746
2.084                  0.9636316        168.3973
2.088                   0.974477        165.9173
2.092                  0.9814227        163.4063
2.096                  0.9840265        160.9488
2.1                    0.9825081        158.6293
2.104                  0.9776946        156.5209
2.108                  0.9708862        154.6742
2.112                  0.9636547        153.1083
2.116                  0.9575851        151.8045
2.12                   0.9540006        150.7064
2.124                    0.95372        149.7285
2.128                  0.9569087        148.7733
2.132                  0.9630703        147.7503
2.136                   0.971172        146.5947
2.14                   0.9798727        145.2768
2.144                  0.9877863        143.8032
2.148                  0.9937248        142.2116
2.152                  0.9968822        140.5609
2.156                  0.9969454        138.9204
2.16                   0.9941247        137.3593
2.164                  0.9891075        135.9364
2.168                  0.9829439        134.6905
2.172                  0.9768692        133.6335
2.176                  0.9720888        132.7466
2.18                   0.9695548        131.9819
2.184                  0.9697848        131.2712
2.188                  0.9727645          130.54
2.192                  0.9779605        129.7224
2.196                  0.9844414        128.7746
2.2                    0.9910689        127.6813
2.204                  0.9967159        126.4564
2.208                   1.000462        125.1378
2.212                   1.001742        123.7797
2.216                   1.000431        122.4432
2.22                   0.9968515        121.1864
2.224                   0.991724         120.056
2.228                  0.9860403        119.0785
2.232                  0.9808958        118.2549
2.236                  0.9772883        117.5589
2.24                   0.9759276        116.9408
2.244                  0.9770945        116.3371
2.248                  0.9805867        115.6833
2.252                   0.985764        114.9274
2.256                  0.9916829          114.04
2.26                    0.997283        113.0181
2.264                   1.001584        111.8841
2.268                   1.003853        110.6804
2.272                    1.00373        109.4613
2.276                   1.001277        108.2843
2.28                   0.9969728        107.2008
2.284                  0.9916295        106.2476
2.288                  0.9862596        105.4397
2.292                  0.9818938        104.7662
2.296                  0.9793862         104.191
2.3                    0.9792436        103.6587
2.304                  0.9815198        103.1056
2.308                  0.9858033        102.4734
2.312                  0.9913022        101.7207
2.316                  0.9970026         100.831
2.32                    1.001864        99.81388
2.324                   1.005006        98.70239
2.328                   1.005864        97.54618
2.332                   1.004281        96.40301
2.336                    1.00054        95.32964
2.34                   0.9953191        94.37243
2.344                  0.9895856        93.55886
2.348                  0.9844289        92.89113
2.352                  0.9808587        92.34376