! TOUCHSTONE file generated by CST MICROWAVE STUDIO
! Date and time: Tue Jun 14 11:27:53 2022
! Project name: AppElm_antenne_patch_FR4.cst
! Parameters = {L=45; W=64.35; e=0.035; h=1.6; lambda=0.190476; ls=120; w0=2.54; w1=0.847; ws=120; y0=18; y1=23.8}
! Header version: 2018
! Port assignment regex: !\s*Touchstone port\s*([0-9]+)\s*=\s*(CST MWS port|CST DS port)\s*([0-9]+|Zmin|Zmax)\s*\(\"(.*)\"\)(\s*mode\s*([0-9]+))?.*
! Touchstone port assignment:
! Touchstone port 1 = CST MWS port 1 ("")
# GHz S MA R 50
0                      0.9813213              -0
0.004                  0.9824308         -10.808
0.008                  0.9856023        -21.4984
0.012                  0.9903904       -31.96115
0.016                  0.9961344       -42.09972
0.02                    1.002062       -51.83438
0.024                   1.007402       -61.10293
0.028                   1.011491       -69.85948
0.032                   1.013859       -78.07235
0.036                    1.01428       -85.72216
0.04                    1.012792       -92.80056
0.044                   1.009691       -99.30992
0.048                   1.005477       -105.2641
0.052                    1.00079        -110.689
0.056                  0.9963135       -115.6238
0.06                   0.9926777       -120.1195
0.064                   0.990365       -124.2373
0.068                  0.9896401       -128.0436
0.072                  0.9905147       -131.6044
0.076                  0.9927572       -134.9793
0.08                   0.9959391       -138.2162
0.084                  0.9995154       -141.3478
0.088                   1.002914       -144.3916
0.092                   1.005626       -147.3507
0.096                   1.007276       -150.2171
0.1                     1.007673       -152.9759
0.104                   1.006828       -155.6099
0.108                    1.00494       -158.1033
0.112                   1.002362        -160.446
0.116                  0.9995408       -162.6365
0.12                    0.996943       -164.6827
0.124                  0.9949809       -166.6026
0.128                  0.9939471       -168.4214
0.132                  0.9939694       -170.1689
0.136                  0.9949956       -171.8749
0.14                   0.9968101       -173.5644
0.144                  0.9990768       -175.2553
0.148                   1.001401       -176.9556
0.152                   1.003395       -178.6637
0.156                   1.004746        179.6304
0.16                    1.005257        177.9422
0.164                   1.004876        176.2901
0.168                     1.0037        174.6917
0.172                   1.001952        173.1608
0.176                  0.9999444         171.705
0.18                   0.9980213         170.324
0.184                  0.9965048        169.0098
0.188                  0.9956385        167.7475
0.192                  0.9955489        166.5181
0.196                  0.9962256        165.3015
0.2                    0.9975288        164.0796
0.204                  0.9992164        162.8397
0.208                   1.000989         161.576
0.212                   1.002542        160.2899
0.216                   1.003619        158.9896
0.22                    1.004052        157.6884
0.224                   1.003784        156.4018
0.228                   1.002878         155.145
0.232                   1.001504        153.9306
0.236                  0.9999077         152.766
0.24                    0.998366        151.6522
0.244                  0.9971425        150.5841
0.248                  0.9964402        149.5504
0.252                  0.9963687        148.5365
0.256                  0.9969254        147.5263
0.26                       0.998        146.5055
0.264                  0.9993942        145.4639
0.268                    1.00086        144.3966
0.272                   1.002144        143.3054
0.276                   1.003028        142.1972
0.28                    1.003368        141.0835
0.284                   1.003116        139.9778
0.288                   1.002325        138.8936
0.292                    1.00114        137.8416
0.296                  0.9997719        136.8286
0.3                    0.9984597        135.8557
0.304                    0.99743        134.9183
0.308                  0.9968574        134.0071
0.312                  0.9968344        133.1094
0.316                  0.9973566        132.2113
0.32                   0.9983247        131.3008
0.324                  0.9995628        130.3689
0.328                   1.000852         129.412
0.332                   1.001967        128.4317
0.336                   1.002719        127.4346
0.34                    1.002983        126.4313
0.344                   1.002719        125.4338
0.348                    1.00198        124.4543
0.352                     1.0009        123.5024
0.356                  0.9996717         122.584
0.36                   0.9985098        121.6998
0.364                  0.9976174        120.8455
0.368                  0.9971485        120.0124
0.372                  0.9971812         119.189
0.376                  0.9977048        118.3628
0.38                   0.9986227        117.5229
0.384                  0.9997697        116.6617
0.388                   1.000943        115.7762
0.392                   1.001938        114.8683
0.396                   1.002583        113.9447
0.4                     1.002768        113.0151
0.404                   1.002465        112.0911
0.408                   1.001731        111.1838
0.412                   1.000696         110.302
0.416                  0.9995422        109.4507
0.42                    0.998473        108.6303
0.424                  0.9976751        107.8363
0.428                  0.9972869        107.0602
0.432                  0.9973739         106.291
0.436                  0.9979177        105.5171
0.44                   0.9988194        104.7284
0.444                  0.9999176        103.9182
0.448                   1.001018        103.0841
0.452                   1.001929        102.2285
0.456                    1.00249        101.3581
0.46                    1.002606        100.4826
0.464                   1.002259        99.61294
0.468                    1.00151        98.75975
0.472                   1.000494         97.9311
0.476                  0.9993881        97.13135
0.48                   0.9983878        96.36029
0.484                  0.9976691        95.61312
0.488                  0.9973579        94.88128
0.492                   0.997508        94.15395
0.496                  0.9980914        93.42003
0.5                    0.9990033        92.67008
0.504                   1.000081        91.89802
0.508                   1.001135        91.10218
0.512                   1.001978        90.28549
0.516                   1.002463        89.45496
0.52                    1.002506        88.62032
0.524                   1.002098        87.79247
0.528                   1.001311        86.98148
0.532                   1.000283        86.19495
0.536                  0.9991942         85.4366
0.54                   0.9982362        84.70561
0.544                  0.9975774        83.99668
0.548                   0.997334        83.30096
0.552                  0.9975486        82.60761
0.556                  0.9981818        81.90573
0.56                    0.999121        81.18634
0.564                   1.000199        80.44397
0.568                   1.001225        79.67763
0.572                   1.002018        78.89084
0.576                   1.002437        78.09105
0.58                    1.002409        77.28828
0.584                   1.001937         76.4934
0.588                   1.001105        75.71624
0.592                   1.000057        74.96389
0.596                  0.9989777        74.23947
0.6                    0.9980587        73.54146
0.604                  0.9974629        72.86392
0.608                   0.997297        72.19754
0.612                  0.9975914        71.53127
0.616                  0.9982945        70.85427
0.62                   0.9992822        70.15795
0.624                    1.00038        69.43743
0.628                   1.001393        68.69243
0.632                   1.002143         67.9272
0.636                   1.002495        67.14981
0.64                    1.002388        66.37073
0.644                   1.001837        65.60097
0.648                   1.000938        64.85022
0.652                  0.9998469        64.12516
0.656                  0.9987562        63.42827
0.66                   0.9978584        62.75726
0.664                  0.9973133        62.10544
0.668                  0.9972191        61.46286
0.672                  0.9975936        60.81809
0.676                  0.9983712        60.16027
0.68                   0.9994144        59.48109
0.684                   1.000538        58.77625
0.688                   1.001543        58.04623
0.692                   1.002251        57.29613
0.696                   1.002533        56.53477
0.7                     1.002339        55.77314
0.704                   1.001699        55.02253
0.708                   1.000723        54.29255
0.712                  0.9995807        53.58948
0.716                  0.9984743        52.91507
0.72                   0.9975997        52.26615
0.724                  0.9971141        51.63512
0.728                  0.9971062        51.01124
0.732                  0.9975799        50.38258
0.736                  0.9984533        49.73814
0.74                   0.9995723        49.06989
0.744                   1.000739        48.37414
0.748                   1.001747        47.65227
0.752                   1.002415        46.91034
0.756                   1.002622        46.15807
0.76                    1.002329        45.40719
0.764                   1.001583        44.66936
0.768                    1.00051        43.95421
0.772                  0.9992977        43.26759
0.776                  0.9981593        42.61047
0.78                   0.9972967        41.97873
0.784                   0.996865        41.36369
0.788                  0.9969436        40.75367
0.792                  0.9975211         40.1361
0.796                  0.9984967        39.49978
0.8                    0.9996981        38.83691
0.804                   1.000912        38.14451
0.808                   1.001921         37.4249
0.812                   1.002545        36.68526
0.816                   1.002667        35.93639
0.82                    1.002262        35.19082
0.824                   1.001395        34.46072
0.828                   1.000213         33.7557
0.832                  0.9989232        33.08117
0.836                  0.9977522        32.43724
0.84                   0.9969096         31.8186
0.844                  0.9965485         31.2153
0.848                  0.9967375        30.61456
0.852                  0.9974471          30.003
0.856                  0.9985549        29.36915
0.86                   0.9998657        28.70549
0.864                   1.001148        28.00977
0.868                   1.002172        27.28547
0.872                   1.002754        26.54106
0.876                   1.002786         25.7886
0.88                    1.002255        25.04166
0.884                   1.001248        24.31298
0.888                  0.9999366        23.61229
0.892                  0.9985497        22.94452
0.896                  0.9973318        22.30879
0.9                    0.9965012        21.69845
0.904                  0.9962099        21.10211
0.908                  0.9965146        20.50567
0.912                  0.9973658        19.89484
0.916                  0.9986156        19.25777
0.92                    1.000043        18.58722
0.924                   1.001396        17.88184
0.928                   1.002429        17.14636
0.932                   1.002956        16.39081
0.936                   1.002876        15.62868
0.94                    1.002193        14.87474
0.944                   1.001019        14.14245
0.948                  0.9995551        13.44165
0.952                   0.998055        12.77669
0.956                  0.9967851        12.14555
0.96                   0.9959742        11.53998
0.964                   0.995773        10.94684
0.968                  0.9962246        10.35041
0.972                  0.9972555        9.735287
0.976                  0.9986874         9.08916
0.98                    1.000269        8.405093
0.984                   1.001719        7.682733
0.988                   1.002778        6.928353
0.992                   1.003253        6.153739
0.996                    1.00305        5.374181
1                       1.002194        4.605893
1.004                   1.000825        3.863254
1.008                   0.999177        3.156284
1.012                  0.9975366        2.488757
1.016                  0.9961951        1.857323
1.02                   0.9953952        1.251878
1.024                  0.9952873        0.657217
1.028                  0.9958984      0.05573426
1.032                  0.9971276      -0.5693566
1.036                  0.9987611       -1.230923
1.04                     1.00051       -1.935569
1.044                   1.002064       -2.682474
1.048                    1.00314       -3.463564
1.052                   1.003539       -4.264924
1.056                   1.003176       -5.069147
1.06                      1.0021       -5.858247
1.064                   1.000487        -6.61672
1.068                  0.9986092       -7.334279
1.072                  0.9967942       -8.007847
1.076                  0.9953646       -8.642392
1.08                   0.9945811       -9.250279
1.084                  0.9945938       -9.849341
1.088                  0.9954118       -10.45952
1.092                     0.9969       -11.09943
1.096                  0.9988009       -11.78269
1.1                      1.00078       -12.51555
1.104                   1.002485        -13.2958
1.108                   1.003608       -14.11329
1.112                   1.003938       -14.95138
1.116                   1.003399       -15.79008
1.12                    1.002068       -16.60915
1.124                   1.000161       -17.39156
1.128                  0.9980015       -18.12661
1.132                   0.995966       -18.81189
1.136                  0.9944174       -19.45425
1.14                   0.9936405       -20.06887
1.144                  0.9937873       -20.67673
1.148                  0.9948456       -21.30085
1.152                  0.9966396         -21.962
1.156                  0.9988577       -22.67488
1.16                    1.001108       -23.44541
1.164                   1.002987       -24.26973
1.168                   1.004152       -25.13492
1.172                   1.004376       -26.02116
1.176                   1.003595       -26.90507
1.18                    1.001918       -27.76344
1.184                  0.9996156       -28.57723
1.188                  0.9970745       -29.33496
1.192                  0.9947362       -30.03509
1.196                   0.993019       -30.68684
1.2                    0.9922414       -31.30899
1.204                  0.9925612       -31.92679
1.208                  0.9939412       -32.56734
1.212                  0.9961535       -33.25456
1.216                  0.9988154       -34.00475
1.22                    1.001459       -34.82358
1.224                    1.00361       -35.70519
1.228                   1.004875       -36.63325
1.232                   1.005003       -37.58372
1.236                    1.00394       -38.52869
1.24                    1.001834       -39.44093
1.244                  0.9990211       -40.29842
1.248                  0.9959735       -41.08842
1.252                  0.9932211       -41.81011
1.256                  0.9912583       -42.47566
1.26                   0.9904543       -43.10857
1.264                  0.9909792       -43.73981
1.268                  0.9927666       -44.40219
1.272                  0.9955198        -45.1241
1.276                  0.9987622       -45.92419
1.28                    1.001919       -46.80803
1.284                    1.00442       -47.76721
1.288                   1.005795       -48.78087
1.292                   1.005756       -49.81912
1.296                   1.004256       -50.84773
1.3                     1.001493       -51.83358
1.304                   0.997898       -52.75005
1.308                  0.9940616       -53.58203
1.312                  0.9906444       -54.32939
1.316                  0.9882595       -55.00817
1.32                   0.9873585       -55.64864
1.324                  0.9881402       -56.29043
1.328                  0.9905039       -56.97511
1.332                  0.9940592       -57.73825
1.336                  0.9981908       -58.60275
1.34                    1.002166       -59.57464
1.344                    1.00526       -60.64233
1.348                   1.006883       -61.77872
1.352                   1.006677       -62.94542
1.356                   1.004587       -64.09878
1.36                    1.000877       -65.19635
1.364                  0.9961048       -66.20387
1.368                  0.9910419       -67.10164
1.372                   0.986553        -67.8894
1.376                  0.9834458       -68.58837
1.38                   0.9823173       -69.23917
1.384                  0.9834293       -69.89525
1.388                   0.986642       -70.61291
1.392                  0.9914245       -71.44024
1.396                  0.9969424       -72.40796
1.4                     1.002201       -73.52398
1.404                   1.006216       -74.77247
1.408                   1.008176       -76.11684
1.412                   1.007583       -77.50533
1.416                   1.004343       -78.87845
1.42                   0.9987986       -80.17722
1.424                  0.9917083       -81.35242
1.428                  0.9841496       -82.37376
1.432                  0.9773612       -83.23791
1.436                  0.9725343       -83.97325
1.44                   0.9705822       -84.63854
1.444                   0.971941       -85.31415
1.448                  0.9764497       -86.08714
1.452                  0.9833495       -87.03357
1.456                  0.9914038       -88.20376
1.46                   0.9991047       -89.61385
1.464                   1.004925       -91.24456
1.468                   1.007559       -93.04546
1.472                   1.006131       -94.94269
1.476                   1.000345       -96.84791
1.48                   0.9905709       -98.66898
1.484                  0.9778529       -100.3222
1.488                  0.9638264       -101.7469
1.492                  0.9505249       -102.9228
1.496                  0.9400665       -103.8853
1.5                    0.9342442       -104.7329
1.504                  0.9340961       -105.6195
1.508                  0.9395762       -106.7286
1.512                  0.9494375       -108.2365
1.516                  0.9613697         -110.28
1.52                   0.9723237       -112.9386
1.524                  0.9789156       -116.2346
1.528                  0.9778012       -120.1445
1.532                  0.9659726       -124.6141
1.536                  0.9409641       -129.5704
1.54                   0.9009801       -134.9301
1.544                  0.8449646       -140.6021
1.548                  0.7726273       -146.4838
1.552                   0.684438       -152.4486
1.556                  0.5816045       -158.3134
1.56                   0.4660573       -163.7494
1.564                  0.3405301       -167.9828
1.568                  0.2092839       -168.3492
1.572                 0.08677015        -146.592
1.576                  0.1032373       -58.07232
1.58                   0.2301593       -43.63875
1.584                   0.361323        -45.0302
1.588                  0.4860358        -49.5796
1.592                  0.6003534       -55.16352
1.596                  0.7016149       -61.11881
1.6                    0.7879274       -67.14969
1.604                  0.8581185       -73.08443
1.608                   0.911763       -78.80001
1.612                  0.9492126       -84.19389
1.616                   0.971605       -89.17286
1.62                   0.9808416       -93.65035
1.624                  0.9795205       -97.55008
1.628                  0.9708033       -100.8151
1.632                  0.9581985       -103.4222
1.636                  0.9452406       -105.3987
1.64                   0.9350793       -106.8353
1.644                  0.9300386        -107.885
1.648                   0.931267       -108.7416
1.652                  0.9386109       -109.6023
1.656                  0.9507692       -110.6265
1.66                   0.9656786       -111.9103
1.664                  0.9809903       -113.4799
1.668                  0.9945072       -115.3032
1.672                   1.004506        -117.307
1.676                   1.009931       -119.3961
1.68                     1.01047       -121.4679
1.684                    1.00654       -123.4252
1.688                  0.9991897       -125.1871
1.692                  0.9899354       -126.6992
1.696                  0.9805311       -127.9423
1.7                    0.9726916       -128.9381
1.704                  0.9678049       -129.7479
1.708                  0.9666901       -130.4628
1.712                  0.9694598       -131.1857
1.716                  0.9755301       -132.0097
1.72                   0.9837696       -133.0006
1.724                  0.9927429       -134.1873
1.728                   1.000984       -135.5614
1.732                   1.007236       -137.0833
1.736                   1.010635       -138.6924
1.74                    1.010811       -140.3176
1.744                   1.007915       -141.8876
1.748                   1.002581       -143.3405
1.752                   0.995817       -144.6323
1.756                  0.9888445       -145.7442
1.76                   0.9828967       -146.6867
1.764                  0.9790084       -147.4991
1.768                  0.9778316       -148.2432
1.772                  0.9795207       -148.9912
1.776                  0.9837175       -149.8115
1.78                   0.9896359       -150.7553
1.784                  0.9962245       -151.8482
1.788                   1.002365       -153.0881
1.792                   1.007062       -154.4483
1.796                   1.009599       -155.8834
1.8                     1.009635       -157.3381
1.804                   1.007247       -158.7551
1.808                   1.002905       -160.0836
1.812                  0.9973924       -161.2869
1.816                  0.9916826       -162.3483
1.82                   0.9867734       -163.2748
1.824                  0.9835154       -164.0968
1.828                  0.9824601       -164.8633
1.832                  0.9837596       -165.6326
1.836                  0.9871456       -166.4605
1.84                   0.9919889       -167.3904
1.844                  0.9974255        -168.445
1.848                   1.002518       -169.6243
1.852                   1.006416        -170.907
1.856                   1.008495       -172.2556
1.86                    1.008446       -173.6228
1.864                   1.006321       -174.9592
1.868                   1.002511       -176.2204
1.872                   0.997691       -177.3743
1.876                  0.9927021       -178.4059
1.88                    0.988415        -179.321
1.884                  0.9855758        179.8539
1.888                  0.9846721        179.0762
1.892                  0.9858425        178.2949
1.896                   0.988854        177.4607
1.9                    0.9931511         176.535
1.904                  0.9979644        175.4973
1.908                   1.002452        174.3472
1.912                   1.005848        173.1037
1.916                   1.007583        171.8008
1.92                    1.007377        170.4816
1.924                   1.005279        169.1913
1.928                   1.001653        167.9708
1.932                  0.9971246        166.8495
1.936                   0.992475        165.8409
1.94                   0.9885117        164.9388
1.944                   0.985925        164.1182
1.948                  0.9851621        163.3387
1.952                  0.9863423        162.5524
1.956                   0.989235        161.7131
1.96                   0.9933055        160.7847
1.964                  0.9978173        159.7482
1.968                   1.001967        158.6039
1.972                   1.005023        157.3707
1.976                    1.00645        156.0816
1.98                    1.005989        154.7786
1.984                   1.003705        153.5058
1.988                  0.9999682        152.3024
1.992                  0.9954043        151.1968
1.996                  0.9907892        150.2009
2                      0.9869186        149.3073
2.004                  0.9844665        148.4898
2.008                  0.9838579         147.707
2.012                  0.9851871        146.9106
2.016                  0.9881957        146.0541
2.02                   0.9923222        145.1021
2.024                   0.996806        144.0365
2.028                   1.000826        142.8592
2.032                   1.003643        141.5905
2.036                   1.004723        140.2656
2.04                    1.003826        138.9282
2.044                   1.001046        137.6241
2.048                  0.9967986        136.3936
2.052                  0.9917615        135.2653
2.056                  0.9867665        134.2498
2.06                   0.9826574        133.3371
2.064                   0.980138        132.4968
2.068                  0.9796345        131.6824
2.072                  0.9812081        130.8402
2.076                  0.9845348        129.9195
2.08                    0.988963        128.8825
2.084                  0.9936305        127.7109
2.088                  0.9976196        126.4086
2.092                   1.000115             125
2.096                   1.000541        123.5257
2.1                    0.9986571        122.0355
2.104                  0.9946042        120.5813
2.108                  0.9888945        119.2086
2.112                  0.9823416        117.9488
2.116                  0.9759358        116.8121
2.12                   0.9706779        115.7834
2.124                  0.9673925        114.8222
2.128                  0.9665607         113.868
2.132                  0.9682069        112.8513
2.136                  0.9718755        111.7065
2.14                   0.9767007        110.3846
2.144                  0.9815571        108.8616
2.148                  0.9852505        107.1414
2.152                  0.9867161        105.2534
2.156                  0.9851899        103.2472
2.16                   0.9803335        101.1844
2.164                   0.972301        99.13011
2.168                  0.9617389        97.14208
2.172                  0.9497135        95.26015
2.176                  0.9375581        93.49484
2.18                   0.9266496        91.81796
2.184                  0.9181333        90.15878
2.188                  0.9126477        88.40858
2.192                  0.9101154        86.43526
2.196                  0.9096596        84.10384
2.2                    0.9096738        81.29675
2.204                  0.9080185        77.92666
2.208                  0.9022884        73.93962
2.212                  0.8900879        69.30919
2.216                  0.8692702        64.02537
2.22                   0.8381249        58.08082
2.224                   0.795513         51.4553
2.228                  0.7409638        44.09609
2.232                  0.6747556         35.8889
2.236                  0.5980198        26.60629
2.24                   0.5129481        15.80479
2.244                  0.4233133        2.606217
2.248                   0.335858       -14.74913
2.252                   0.263765       -39.38451
2.256                  0.2306106       -73.18849
2.26                    0.254764       -107.9921
2.264                  0.3216803        -134.051
2.268                  0.4065215       -152.2606
2.272                  0.4946474       -165.9001
2.276                  0.5786983       -176.9229
2.28                   0.6546835        173.6925
2.284                  0.7203478         165.454
2.288                  0.7745588         158.109
2.292                  0.8170588        151.5295
2.296                  0.8483434        145.6542
2.3                    0.8695685        140.4565
2.304                  0.8824452        135.9235
2.308                  0.8890984        132.0399
2.312                  0.8918765        128.7736
2.316                  0.8931111        126.0654
2.32                   0.8948493        123.8239
2.324                  0.8985977        121.9297
2.328                  0.9051453        120.2487
2.332                  0.9145099        118.6522
2.336                  0.9260323        117.0365
2.34                   0.9385859        115.3359
2.344                  0.9508436        113.5262
2.348                  0.9615383        111.6204
2.352                  0.9696727         109.659