! TOUCHSTONE file generated by CST MICROWAVE STUDIO
! Date and time: Tue Jun 14 11:27:47 2022
! Project name: AppElm_antenne_patch_FR4.cst
! Parameters = {L=45; W=46.8; e=0.035; h=1.6; lambda=0.190476; ls=120; w0=2.54; w1=0.847; ws=120; y0=18; y1=23.8}
! Header version: 2018
! Port assignment regex: !\s*Touchstone port\s*([0-9]+)\s*=\s*(CST MWS port|CST DS port)\s*([0-9]+|Zmin|Zmax)\s*\(\"(.*)\"\)(\s*mode\s*([0-9]+))?.*
! Touchstone port assignment:
! Touchstone port 1 = CST MWS port 1 ("")
# GHz S MA R 50
0                      0.9846044              -0
0.004                  0.9849115       -8.209364
0.008                  0.9857964        -16.3677
0.012                  0.9871546        -24.4256
0.016                  0.9888261       -32.33678
0.02                   0.9906152       -40.05922
0.024                  0.9923144       -47.55601
0.028                  0.9937281       -54.79579
0.032                  0.9946968       -61.75303
0.036                  0.9951148       -68.40803
0.04                   0.9949428       -74.74692
0.044                  0.9942118       -80.76168
0.048                   0.993021        -86.4501
0.052                  0.9915242       -91.81587
0.056                  0.9899129       -96.86836
0.06                   0.9883912       -101.6225
0.064                  0.9871513       -106.0981
0.068                   0.986347       -110.3188
0.072                  0.9860742       -114.3107
0.076                  0.9863573       -118.1009
0.08                   0.9871463       -121.7152
0.084                   0.988323       -125.1769
0.088                  0.9897191       -128.5052
0.092                  0.9911382       -131.7143
0.096                  0.9923846       -134.8132
0.1                    0.9932887       -137.8062
0.104                  0.9937316       -140.6937
0.108                    0.99366       -143.4735
0.112                  0.9930944       -146.1425
0.116                  0.9921254       -148.6979
0.12                   0.9909011       -151.1394
0.124                  0.9896058       -153.4694
0.128                  0.9884331       -155.6943
0.132                  0.9875577       -157.8241
0.136                  0.9871086        -159.872
0.14                   0.9871491       -161.8531
0.144                  0.9876678       -163.7825
0.148                  0.9885801       -165.6742
0.152                  0.9897413       -167.5388
0.156                  0.9909696       -169.3831
0.16                   0.9920746       -171.2089
0.164                  0.9928866       -173.0141
0.168                  0.9932821       -174.7928
0.172                  0.9932032        -176.537
0.176                  0.9926657       -178.2378
0.18                   0.9917571       -179.8877
0.184                  0.9906232        178.5186
0.188                   0.989445        176.9824
0.192                  0.9884105        175.5011
0.196                  0.9876852        174.0678
0.2                     0.987384        172.6724
0.204                  0.9875536         171.303
0.208                  0.9881638        169.9474
0.212                   0.989113        168.5953
0.216                  0.9902448        167.2395
0.22                   0.9913738        165.8769
0.224                  0.9923161        164.5091
0.228                  0.9929187        163.1415
0.232                  0.9930842        161.7826
0.236                  0.9927865        160.4423
0.24                   0.9920747        159.1303
0.244                  0.9910661        157.8545
0.248                  0.9899261        156.6194
0.252                   0.988843        155.4253
0.256                  0.9879961        154.2684
0.26                   0.9875256        153.1406
0.264                  0.9875095        152.0314
0.268                  0.9879496        150.9293
0.272                  0.9887716        149.8238
0.276                  0.9898369        148.7067
0.28                   0.9909675        147.5741
0.284                  0.9919737        146.4264
0.288                  0.9926878        145.2684
0.292                  0.9929907        144.1081
0.296                  0.9928316        142.9558
0.3                     0.992237        141.8219
0.304                  0.9913059        140.7154
0.308                   0.990194        139.6425
0.312                  0.9890879         138.605
0.316                  0.9881749        137.6004
0.32                   0.9876095        136.6219
0.324                  0.9874884        135.6596
0.328                  0.9878325        134.7023
0.332                  0.9885838        133.7389
0.336                  0.9896144        132.7609
0.34                   0.9907499        131.7635
0.344                  0.9917972        130.7464
0.348                  0.9925787        129.7138
0.352                  0.9929623        128.6734
0.356                  0.9928821        127.6357
0.36                    0.992351        126.6114
0.364                  0.9914581        125.6104
0.368                   0.990354        124.6396
0.372                  0.9892266        123.7017
0.376                  0.9882684         122.795
0.38                   0.9876442        121.9133
0.384                  0.9874628        121.0469
0.388                  0.9877559        120.1844
0.392                  0.9884747        119.3147
0.396                  0.9894962        118.4287
0.4                    0.9906454        117.5209
0.404                  0.9917257        116.5907
0.408                  0.9925518        115.6419
0.412                  0.9929823        114.6824
0.416                  0.9929422        113.7225
0.42                   0.9924369        112.7736
0.424                  0.9915514        111.8459
0.428                  0.9904361        110.9468
0.432                  0.9892817        110.0797
0.436                   0.988287        109.2432
0.44                    0.987625        108.4312
0.444                  0.9874112        107.6341
0.448                  0.9876845        106.8402
0.452                   0.988399         106.038
0.456                  0.9894321        105.2181
0.46                   0.9906056        104.3746
0.464                   0.991717        103.5067
0.468                  0.9925742        102.6182
0.472                  0.9930286        101.7169
0.476                  0.9930002        100.8138
0.48                   0.9924918         99.9204
0.484                  0.9915888         99.0474
0.488                  0.9904448        98.20264
0.492                   0.989256        97.38971
0.496                  0.9882287        96.60727
0.5                    0.9875419         95.8492
0.504                  0.9873168        95.10557
0.508                  0.9875947        94.36439
0.512                  0.9883286        93.61369
0.516                   0.989392         92.8437
0.52                   0.9906005        92.04847
0.524                  0.9917443        91.22703
0.528                  0.9926243         90.3834
0.532                  0.9930866        89.52584
0.536                  0.9930488        88.66554
0.54                   0.9925147        87.81463
0.544                  0.9915738        86.98416
0.548                  0.9903863        86.18222
0.552                   0.989157        85.41251
0.556                  0.9880995        84.67352
0.56                   0.9873998        83.95885
0.564                  0.9871817        83.25809
0.568                  0.9874859        82.55872
0.572                   0.988261        81.84835
0.576                  0.9893733        81.11689
0.58                   0.9906291        80.35833
0.584                  0.9918091        79.57185
0.588                  0.9927072        78.76182
0.592                  0.9931654        77.93706
0.596                  0.9931014        77.10927
0.6                    0.9925225        76.29115
0.604                  0.9915261        75.49412
0.608                  0.9902824        74.72649
0.612                  0.9890066        73.99187
0.616                  0.9879215        73.28844
0.62                   0.9872187        72.60925
0.624                  0.9870241        71.94324
0.628                  0.9873746        71.27729
0.632                  0.9882113        70.59848
0.636                  0.9893896        69.89645
0.64                   0.9907038        69.16526
0.644                  0.9919241        68.40438
0.648                  0.9928362        67.61872
0.652                   0.993279        66.81778
0.656                  0.9931719        66.01402
0.66                   0.9925297        65.22071
0.664                    0.99146         64.4497
0.668                  0.9901462        63.70941
0.672                  0.9888163        63.00323
0.676                  0.9877037        62.32887
0.68                   0.9870056        61.67867
0.684                  0.9868481        61.04072
0.688                  0.9872624        60.40115
0.692                  0.9881787        59.74647
0.696                   0.989438        59.06611
0.7                    0.9908204        58.35425
0.704                  0.9920831        57.61079
0.708                  0.9930038        56.84144
0.712                  0.9934186        56.05653
0.716                  0.9932512        55.26935
0.72                   0.9925254        54.49391
0.724                  0.9913633        53.74246
0.728                  0.9899641        53.02349
0.732                  0.9885712        52.34007
0.736                  0.9874296        51.68927
0.74                   0.9867423        51.06245
0.744                  0.9866346        50.44675
0.748                  0.9871292         49.8274
0.752                  0.9881424        49.19029
0.756                  0.9894979        48.52463
0.76                   0.9909583        47.82482
0.764                  0.9922661        47.09141
0.768                  0.9931904        46.33098
0.772                  0.9935652        45.55494
0.776                  0.9933197        44.77757
0.78                   0.9924906        44.01364
0.784                  0.9912167         43.2759
0.788                  0.9897169        42.57282
0.792                  0.9882519        41.90709
0.796                  0.9870801        41.27487
0.8                     0.986411        40.66643
0.804                  0.9863671        40.06774
0.808                  0.9869606        39.46296
0.812                  0.9880906        38.83733
0.816                    0.98956        38.17981
0.82                   0.9911106        37.48516
0.824                  0.9924691         36.7547
0.828                  0.9933938        35.99609
0.832                  0.9937179        35.22198
0.836                  0.9933777        34.44783
0.84                   0.9924255        33.68932
0.844                  0.9910208        32.95967
0.848                  0.9894045        32.26735
0.852                  0.9878588        31.61444
0.856                  0.9866566        30.99615
0.86                   0.9860141        30.40138
0.864                  0.9860503         29.8147
0.868                  0.9867642        29.21906
0.872                  0.9880341        28.59893
0.876                  0.9896385         27.9431
0.88                   0.9912955        27.24671
0.884                  0.9927119        26.51203
0.888                  0.9936356        25.74805
0.892                  0.9938985        24.96883
0.896                  0.9934464         24.1912
0.9                    0.9923497        23.43187
0.904                  0.9907921        22.70463
0.908                  0.9890415         22.0179
0.912                  0.9874036        21.37309
0.916                  0.9861691        20.76415
0.92                   0.9855614        20.17845
0.924                  0.9856949        19.59888
0.928                  0.9865527        19.00702
0.932                  0.9879885        18.38642
0.936                   0.989752        17.72568
0.94                   0.9915334        17.02044
0.944                  0.9930172        16.27411
0.948                  0.9939384        15.49717
0.952                  0.9941279        14.70542
0.956                  0.9935428        13.91725
0.96                   0.9922745         13.1506
0.964                  0.9905362         12.4199
0.968                  0.9886261        11.73352
0.972                  0.9868792        11.09207
0.976                  0.9856061        10.48805
0.98                   0.9850388        9.906969
0.984                  0.9852865        9.329787
0.988                  0.9863135        8.736403
0.992                  0.9879444        8.109335
0.996                  0.9898954        7.436931
1                      0.9918229        6.715426
1.004                  0.9933854        5.949536
1.008                  0.9943024        5.151572
1.012                  0.9944037        4.339309
1.016                  0.9936589        3.533019
1.02                   0.9921851        2.752108
1.024                  0.9902285        2.011808
1.028                  0.9881252        1.320441
1.032                  0.9862438       0.6777013
1.036                    0.98492      0.07439266
1.04                   0.9843966      -0.5062067
1.044                  0.9847768       -1.085458
1.048                   0.986003       -1.685474
1.052                   0.987866       -2.325021
1.056                  0.9900408       -3.016082
1.06                   0.9921444       -3.761746
1.064                  0.9938031       -4.555754
1.068                  0.9947173       -5.383663
1.072                  0.9947141       -6.225308
1.076                  0.9937776       -7.058142
1.08                   0.9920544       -7.860964
1.084                  0.9898312       -8.617504
1.088                   0.987489       -9.319402
1.092                  0.9854381       -9.968023
1.096                  0.9840454       -10.57454
1.1                    0.9835685       -11.15844
1.104                  0.9841045       -11.74387
1.108                  0.9855709       -12.35547
1.112                  0.9877168       -13.01363
1.116                  0.9901683       -13.73091
1.12                   0.9924932       -14.50952
1.124                  0.9942774       -15.34147
1.128                  0.9951967       -16.20973
1.132                  0.9950727       -17.09123
1.136                  0.9939055       -17.96061
1.14                   0.9918765       -18.79434
1.144                  0.9893215       -19.57477
1.148                  0.9866769       -20.29335
1.152                  0.9844061        -20.9526
1.156                  0.9829171       -21.56615
1.16                   0.9824875       -22.15672
1.164                  0.9832105       -22.75216
1.168                  0.9849734       -23.38031
1.172                  0.9874756       -24.06378
1.176                  0.9902816       -24.81579
1.18                   0.9928964       -25.63792
1.184                  0.9948537       -26.51993
1.188                  0.9957947       -27.44168
1.192                  0.9955316       -28.37643
1.196                   0.994081       -29.29518
1.2                    0.9916659       -30.17135
1.204                  0.9886829       -30.98528
1.208                  0.9856396       -31.72795
1.212                  0.9830691       -32.40314
1.216                  0.9814357       -33.02741
1.22                   0.9810475       -33.62775
1.224                   0.981996       -34.23674
1.228                   0.984134       -34.88659
1.232                  0.9870986       -35.60299
1.236                  0.9903741       -36.40041
1.24                   0.9933831       -37.27967
1.244                  0.9955871       -38.22793
1.248                  0.9965783       -39.22109
1.252                  0.9961501       -40.22764
1.256                  0.9943358       -41.21371
1.26                   0.9914085       -42.14845
1.264                  0.9878432       -43.00919
1.268                  0.9842421       -43.78584
1.272                  0.9812348       -44.48347
1.276                  0.9793667       -45.12235
1.28                   0.9789947       -45.73509
1.284                  0.9802162       -46.36086
1.288                  0.9828427       -47.03807
1.292                  0.9864299       -47.79704
1.296                  0.9903546        -48.6544
1.3                    0.9939238       -49.61033
1.304                  0.9964948       -50.64884
1.308                  0.9975841       -51.74058
1.312                  0.9969504       -52.84758
1.316                  0.9946404       -53.92911
1.32                    0.990989       -54.94795
1.324                  0.9865756       -55.87666
1.328                   0.982136       -56.70289
1.332                   0.978442       -57.43283
1.336                  0.9761639        -58.0915
1.34                   0.9757421        -58.7195
1.344                  0.9772953       -59.36569
1.348                  0.9805874       -60.07808
1.352                  0.9850627        -60.8945
1.356                   0.989943       -61.83554
1.36                   0.9943623       -62.90127
1.364                  0.9975162       -64.07166
1.368                  0.9987954       -65.31025
1.372                  0.9978902       -66.56972
1.376                  0.9948488       -67.79901
1.38                   0.9900825       -68.95073
1.384                  0.9843176       -69.98915
1.388                  0.9784915       -70.89705
1.392                  0.9736027       -71.68088
1.396                  0.9705345       -72.37207
1.4                     0.969883       -73.02327
1.404                  0.9718285       -73.69934
1.408                  0.9760825       -74.46479
1.412                  0.9819282       -75.37108
1.416                  0.9883432       -76.44702
1.42                   0.9941766       -77.69426
1.424                  0.9983429       -79.08792
1.428                          1       -80.58127
1.432                  0.9986878       -82.11268
1.436                  0.9944135       -83.61409
1.44                   0.9876742       -85.02043
1.444                  0.9794121       -86.27956
1.448                  0.9708957        -87.3627
1.452                    0.96353       -88.27305
1.456                  0.9586151       -89.05032
1.46                   0.9570893       -89.76798
1.464                  0.9593168       -90.52146
1.468                  0.9649804       -91.40972
1.472                  0.9731111         -92.515
1.476                  0.9822507       -93.88754
1.48                   0.9906993       -95.53817
1.484                  0.9967928       -97.43913
1.488                  0.9991586       -99.53048
1.492                   0.996923       -101.7288
1.496                  0.9898571       -103.9375
1.5                    0.9784521       -106.0572
1.504                  0.9639168       -107.9991
1.508                  0.9480796       -109.7008
1.512                  0.9331742       -111.1449
1.516                  0.9214964       -112.3765
1.52                   0.9149595       -113.5116
1.524                  0.9146339       -114.7275
1.528                  0.9204094       -116.2326
1.532                   0.930903       -118.2258
1.536                  0.9436413       -120.8613
1.54                     0.95544       -124.2326
1.544                   0.962843        -128.377
1.548                  0.9625154       -133.2917
1.552                  0.9515429       -138.9544
1.556                  0.9276359       -145.3421
1.56                   0.8892599       -152.4485
1.564                  0.8357188        -160.303
1.568                  0.7672223       -168.9971
1.572                  0.6849779       -178.7308
1.576                  0.5913904        170.0922
1.58                   0.4905793        156.6599
1.584                  0.3898048        139.3096
1.588                  0.3032611        114.8905
1.592                  0.2579052        80.60184
1.596                  0.2794322        43.69355
1.6                    0.3543401        15.59352
1.604                   0.452058       -3.985481
1.608                  0.5540587       -18.65573
1.612                  0.6510858        -30.5821
1.616                  0.7380665       -40.82856
1.62                   0.8120191       -49.91957
1.624                  0.8712973       -58.11679
1.628                    0.91531         -65.545
1.632                  0.9444037       -72.25243
1.636                  0.9597955       -78.24267
1.64                   0.9635018       -83.49545
1.644                  0.9582333       -87.98392
1.648                  0.9472239       -91.69314
1.652                  0.9339711       -94.64072
1.656                  0.9218723       -96.89642
1.66                   0.9137838       -98.59311
1.664                  0.9115888       -99.91937
1.668                  0.9159109       -101.0902
1.672                  0.9260903        -102.305
1.676                  0.9404418       -103.7095
1.68                    0.956696        -105.378
1.684                  0.9724768       -107.3149
1.688                  0.9857001       -109.4714
1.692                  0.9948448       -111.7641
1.696                  0.9990972       -114.0932
1.7                    0.9983915        -116.356
1.704                  0.9933656       -118.4593
1.708                  0.9852443        -120.329
1.712                  0.9756556       -121.9205
1.716                   0.966388       -123.2266
1.72                   0.9591094       -124.2817
1.724                  0.9550868       -125.1586
1.728                  0.9549683       -125.9559
1.732                  0.9586829       -126.7784
1.736                    0.96549       -127.7159
1.74                   0.9741584       -128.8271
1.744                  0.9832234       -130.1322
1.748                  0.9912524       -131.6149
1.752                   0.997072       -133.2299
1.756                  0.9999257       -134.9136
1.76                   0.9995579       -136.5942
1.764                  0.9962226        -138.202
1.768                  0.9906287       -139.6784
1.772                   0.983822       -140.9844
1.776                  0.9770192       -142.1067
1.78                   0.9714085       -143.0612
1.784                  0.9679481       -143.8914
1.788                  0.9671989       -144.6609
1.792                  0.9692296       -145.4414
1.796                  0.9736206       -146.2981
1.8                     0.979562        -147.278
1.804                  0.9860181       -148.4025
1.808                  0.9919173       -149.6659
1.812                  0.9963323       -151.0396
1.816                  0.9986186       -152.4781
1.82                    0.998499       -153.9274
1.824                  0.9960911       -155.3329
1.828                  0.9918783        -156.647
1.832                  0.9866268       -157.8366
1.836                  0.9812619        -158.888
1.84                   0.9767132       -159.8102
1.844                  0.9737564       -160.6338
1.848                  0.9728774       -161.4058
1.852                  0.9741881       -162.1811
1.856                  0.9774159       -163.0114
1.86                   0.9819634       -163.9359
1.864                  0.9870296       -164.9749
1.868                  0.9917561       -166.1274
1.872                  0.9953742       -167.3729
1.876                  0.9973251       -168.6765
1.88                   0.9973409       -169.9946
1.884                  0.9954761       -171.2821
1.888                  0.9920923       -172.4991
1.892                  0.9877962       -173.6166
1.896                  0.9833392       -174.6216
1.9                    0.9794912       -175.5196
1.904                  0.9769096       -176.3343
1.908                  0.9760229       -177.1032
1.912                  0.9769565        -177.871
1.916                  0.9795156       -178.6812
1.92                   0.9832269       -179.5676
1.924                  0.9874338        179.4512
1.928                  0.9914143        178.3739
1.932                   0.994508        177.2162
1.936                  0.9962212        176.0067
1.94                   0.9963014         174.782
1.944                   0.994772        173.5808
1.948                  0.9919222         172.438
1.952                  0.9882578        171.3792
1.956                  0.9844171        170.4165
1.96                   0.9810632        169.5462
1.964                  0.9787703        168.7489
1.968                  0.9779219         167.993
1.972                  0.9786442        167.2404
1.976                  0.9807862        166.4533
1.98                   0.9839533        165.6019
1.984                  0.9875821        164.6689
1.988                  0.9910456        163.6523
1.992                  0.9937608        162.5647
1.996                  0.9952845        161.4307
2                      0.9953828        160.2822
2.004                  0.9940634        159.1533
2.008                  0.9915708         158.075
2.012                  0.9883451        157.0704
2.016                  0.9849464        156.1507
2.02                    0.981962        155.3129
2.024                   0.979904        154.5405
2.028                  0.9791188        153.8057
2.032                  0.9797265        153.0748
2.036                  0.9816012        152.3143
2.04                   0.9843973        151.4975
2.044                  0.9876173        150.6084
2.048                  0.9907007        149.6447
2.052                  0.9931234        148.6175
2.056                  0.9944836        147.5484
2.06                   0.9945661         146.466
2.064                  0.9933736        145.4011
2.068                   0.991124        144.3819
2.072                  0.9882116        143.4291
2.076                  0.9851424        142.5531
2.08                   0.9824476        141.7511
2.084                  0.9805901        141.0082
2.088                  0.9798845        140.2994
2.092                  0.9804402        139.5942
2.096                  0.9821434        138.8621
2.1                    0.9846811        138.0789
2.104                  0.9876006        137.2301
2.108                  0.9903909        136.3135
2.112                  0.9925739        135.3392
2.116                  0.9937832         134.327
2.12                   0.9938232        133.3031
2.124                  0.9926982        132.2958
2.128                  0.9906108        131.3309
2.132                  0.9879257        130.4274
2.136                  0.9851091        129.5943
2.14                   0.9826483        128.8291
2.144                  0.9809676        128.1176
2.148                  0.9803521        127.4367
2.152                  0.9808976        126.7581
2.156                  0.9824938        126.0541
2.16                   0.9848475        125.3022
2.164                  0.9875379        124.4895
2.168                  0.9900918        123.6142
2.172                  0.9920682        122.6859
2.176                  0.9931313        121.7233
2.18                   0.9931059        120.7509
2.184                  0.9920036         119.795
2.188                  0.9900196        118.8794
2.192                   0.987499        118.0214
2.196                   0.984879        117.2291
2.2                    0.9826131        116.4995
2.204                  0.9810916        115.8188
2.208                  0.9805728        115.1651
2.212                  0.9811364        114.5119
2.216                  0.9826697        113.8335
2.22                   0.9848907        113.1093
2.224                  0.9874004        112.3276
2.228                  0.9897555        111.4874
2.232                  0.9915459        110.5982
2.236                   0.992464        109.6779
2.24                    0.992355        108.7499
2.244                  0.9912414        107.8388
2.248                  0.9893175        106.9669
2.252                  0.9869164        106.1499
2.256                  0.9844533        105.3946
2.26                    0.982354        104.6975
2.264                  0.9809798        104.0449
2.268                  0.9805631        103.4157
2.272                  0.9811656        102.7848
2.276                  0.9826676        102.1281
2.28                   0.9847921        101.4265
2.284                  0.9871558        100.6699
2.288                  0.9893387          99.858
2.292                  0.9909574        99.00052
2.296                  0.9917305        98.11502
2.3                    0.9915247        97.22395
2.304                  0.9903758        96.35073
2.308                  0.9884813        95.51603
2.312                  0.9861677        94.73421
2.316                  0.9838336        94.01088
2.32                   0.9818819        93.34168
2.324                  0.9806471        92.71286
2.328                  0.9803367        92.10372
2.332                  0.9809931        91.49023
2.336                  0.9824864        90.84967
2.34                   0.9845403        90.16465
2.344                  0.9867823         89.4262
2.348                  0.9888113         88.6351
2.352                  0.9902682        87.80146