! TOUCHSTONE file generated by CST MICROWAVE STUDIO
! Date and time: Tue Jun 14 11:27:48 2022
! Project name: AppElm_antenne_patch_FR4.cst
! Parameters = {L=45; W=49.725; e=0.035; h=1.6; lambda=0.190476; ls=120; w0=2.54; w1=0.847; ws=120; y0=18; y1=23.8}
! Header version: 2018
! Port assignment regex: !\s*Touchstone port\s*([0-9]+)\s*=\s*(CST MWS port|CST DS port)\s*([0-9]+|Zmin|Zmax)\s*\(\"(.*)\"\)(\s*mode\s*([0-9]+))?.*
! Touchstone port assignment:
! Touchstone port 1 = CST MWS port 1 ("")
# GHz S MA R 50
0                      0.9928342              -0
0.004                  0.9932296       -8.657965
0.008                  0.9943675       -17.25569
0.012                  0.9961087       -25.73516
0.016                  0.9982419       -34.04249
0.02                     1.00051       -42.12946
0.024                   1.002644       -49.95441
0.028                   1.004394        -57.4828
0.032                   1.005563       -64.68717
0.036                   1.006024        -71.5472
0.04                    1.005741       -78.04941
0.044                   1.004767       -84.18717
0.048                    1.00324       -89.96059
0.052                   1.001365       -95.37653
0.056                  0.9993885       -100.4485
0.06                    0.997565       -105.1961
0.064                  0.9961263       -109.6446
0.068                  0.9952495       -113.8232
0.072                  0.9950336       -117.7635
0.076                  0.9954867       -121.4973
0.08                    0.996526       -125.0544
0.084                  0.9979904       -128.4605
0.088                  0.9996646       -131.7362
0.092                    1.00131       -134.8956
0.096                   1.002699        -137.947
0.1                     1.003644       -140.8931
0.104                   1.004025       -143.7325
0.108                   1.003804       -146.4615
0.112                    1.00303       -149.0758
0.116                   1.001829       -151.5721
0.12                    1.000389       -153.9503
0.124                   0.998927       -156.2139
0.128                   0.997664       -158.3709
0.132                  0.9967865       -160.4334
0.136                  0.9964211       -162.4167
0.14                   0.9966145       -164.3376
0.144                  0.9973273       -166.2125
0.148                  0.9984408       -168.0557
0.152                  0.9997763       -169.8775
0.156                   1.001124       -171.6834
0.16                    1.002275       -173.4739
0.164                   1.003053       -175.2447
0.168                   1.003344       -176.9884
0.172                   1.003108       -178.6955
0.176                   1.002389        179.6435
0.18                    1.001306        178.0364
0.184                   1.000034        176.4878
0.188                  0.9987769         174.998
0.192                  0.9977362        173.5628
0.196                  0.9970773        172.1736
0.2                    0.9969031        170.8187
0.204                  0.9972375        169.4852
0.208                  0.9980214        168.1606
0.212                  0.9991234        166.8347
0.216                   1.000361        165.5013
0.22                    1.001531         164.159
0.224                   1.002443        162.8107
0.228                   1.002951        161.4636
0.232                   1.002973        160.1274
0.236                   1.002508        158.8129
0.24                    1.001635        157.5299
0.244                   1.000498        156.2856
0.248                  0.9992848        155.0836
0.252                  0.9981964        153.9228
0.256                  0.9974127        152.7975
0.26                   0.9970635        151.6984
0.264                  0.9972049        150.6139
0.268                  0.9978117        149.5319
0.272                  0.9987801        148.4422
0.276                  0.9999462        147.3378
0.28                    1.001114        146.2159
0.284                   1.002088        145.0786
0.288                   1.002706        143.9323
0.292                   1.002865        142.7863
0.296                    1.00254        141.6516
0.3                     1.001784        140.5387
0.304                   1.000726        139.4563
0.308                  0.9995421        138.4092
0.312                  0.9984333        137.3978
0.316                  0.9975867         136.418
0.32                   0.9971464        135.4614
0.324                  0.9971869        134.5171
0.328                   0.997701        133.5733
0.332                   0.998601        132.6194
0.336                  0.9997328        131.6477
0.34                    1.000904        130.6549
0.344                   1.001915        129.6423
0.348                   1.002594        128.6158
0.352                   1.002827        127.5845
0.356                   1.002573        126.5594
0.36                    1.001876        125.5517
0.364                   1.000852        124.5704
0.368                  0.9996772        123.6213
0.372                  0.9985507        122.7056
0.376                  0.9976665        121.8197
0.38                   0.9971772        120.9558
0.384                   0.997168        120.1033
0.388                  0.9976409        119.2501
0.392                  0.9985151        118.3854
0.396                  0.9996406        117.5012
0.4                     1.000824        116.5936
0.404                   1.001861        115.6637
0.408                   1.002575        114.7172
0.412                   1.002842        113.7632
0.416                   1.002616         112.813
0.42                    1.001935        111.8778
0.424                   1.000913        110.9674
0.428                  0.9997269        110.0879
0.432                  0.9985791        109.2407
0.436                  0.9976694        108.4227
0.44                   0.9971562        107.6261
0.444                  0.9971299        106.8399
0.448                  0.9975966        106.0522
0.452                  0.9984762        105.2517
0.456                  0.9996167        104.4301
0.46                    1.000821        103.5834
0.464                   1.001879        102.7126
0.468                    1.00261        101.8235
0.472                   1.002884        100.9254
0.476                   1.002654        100.0299
0.48                    1.001956        99.14881
0.484                    1.00091        98.29192
0.488                  0.9996953        97.46561
0.492                  0.9985214        96.67152
0.496                  0.9975931        95.90626
0.5                    0.9970735        95.16185
0.504                  0.9970552         94.4271
0.508                  0.9975429        93.68954
0.512                  0.9984528        92.93768
0.516                  0.9996268        92.16309
0.52                     1.00086        91.36174
0.524                   1.001939        90.53482
0.528                   1.002673         89.6884
0.532                   1.002934         88.8323
0.536                   1.002674        87.97857
0.54                    1.001936        87.13926
0.544                   1.000844        86.32456
0.548                  0.9995874        85.54083
0.552                  0.9983835        84.78962
0.556                  0.9974438        84.06715
0.56                    0.996934          83.365
0.564                  0.9969458        82.67139
0.568                  0.9974792        81.97343
0.572                  0.9984423        81.25934
0.576                  0.9996672        80.52056
0.58                     1.00094        79.75326
0.584                   1.002037        78.95903
0.588                   1.002766        78.14445
0.592                   1.002997           77.32
0.596                   1.002687        76.49826
0.6                     1.001887        75.69175
0.604                   1.000733        74.91082
0.608                   0.999424        74.16179
0.612                  0.9981885        73.44588
0.616                  0.9972439        72.75873
0.62                   0.9967588        72.09119
0.624                  0.9968212        71.43084
0.628                  0.9974227        70.76418
0.632                  0.9984597        70.07914
0.636                  0.9997511        69.36714
0.64                     1.00107        68.62471
0.644                   1.002185          67.854
0.648                     1.0029        67.06236
0.652                   1.003085        66.26107
0.656                   1.002706        65.46337
0.66                    1.001824        64.68226
0.664                    1.00059        63.92826
0.668                  0.9992174        63.20751
0.672                  0.9979473        62.52066
0.676                  0.9970039        61.86266
0.68                   0.9965565         61.2234
0.684                  0.9966874        60.58963
0.688                   0.997377        59.94718
0.692                  0.9985058        59.28367
0.696                  0.9998765        58.59064
0.7                     1.001248        57.86507
0.704                   1.002378        57.10988
0.708                   1.003066         56.3334
0.712                   1.003188        55.54783
0.716                   1.002718        54.76725
0.72                    1.001734        54.00513
0.724                   1.000402        53.27212
0.728                  0.9989555         52.5741
0.732                  0.9976474        51.91103
0.736                  0.9967101        51.27683
0.74                   0.9963129        50.66034
0.744                  0.9965298        50.04725
0.748                  0.9973264        49.42268
0.752                  0.9985644        48.77393
0.756                   1.000026        48.09271
0.76                    1.001455        47.37666
0.764                   1.002596        46.62967
0.768                   1.003247         45.8612
0.772                   1.003288        45.08457
0.776                   1.002707        44.31477
0.78                    1.001598        43.56585
0.784                   1.000152        42.84853
0.788                  0.9986202        42.16828
0.792                  0.9972715        41.52418
0.796                  0.9963469        40.90897
0.8                    0.9960138        40.31019
0.804                  0.9963362        39.71232
0.808                  0.9972609         39.0997
0.812                  0.9986273        38.45928
0.816                   1.000195        37.78307
0.82                    1.001686        37.06951
0.824                   1.002837        36.32364
0.828                   1.003439        35.55628
0.832                   1.003382        34.78206
0.836                   1.002668        34.01697
0.84                    1.001415         33.2757
0.844                  0.9998372        32.56902
0.848                  0.9982094        31.90184
0.852                  0.9968191        31.27221
0.856                   0.995915        30.67144
0.86                   0.9956626        30.08552
0.864                  0.9961123        29.49761
0.868                  0.9971895        28.89111
0.872                  0.9987062        28.25266
0.876                   1.000396        27.57466
0.88                    1.001959        26.85648
0.884                   1.003116        26.10459
0.888                    1.00366        25.33135
0.892                   1.003486        24.55289
0.896                   1.002616        23.78641
0.9                     1.001196        23.04722
0.904                  0.9994672        22.34614
0.908                   0.997732        21.68742
0.912                  0.9962976        21.06786
0.916                  0.9954226        20.47707
0.92                   0.9952687        19.89929
0.924                  0.9958703        19.31609
0.928                  0.9971267        18.70983
0.932                   0.998819        18.06687
0.936                   1.000649        17.38003
0.94                    1.002293        16.64986
0.944                   1.003456        15.88446
0.948                   1.003927          15.098
0.952                   1.003615        14.30836
0.956                   1.002563        13.53407
0.96                    1.000946        12.79124
0.964                  0.9990418        12.09065
0.968                  0.9971821        11.43581
0.972                  0.9956979          10.822
0.976                  0.9948583         10.2369
0.98                   0.9948209        9.662615
0.984                  0.9956007        9.078931
0.988                  0.9970667         8.46699
0.992                  0.9989633        7.812805
0.996                   1.000956        7.109774
1                       1.002692        6.359802
1.004                   1.003859        5.572884
1.008                   1.004243        4.765341
1.012                   1.003765         3.95706
1.016                   1.002495        3.168178
1.02                    1.000645        2.415684
1.024                  0.9985303        1.710409
1.028                  0.9965213        1.054925
1.032                  0.9949761       0.4427691
1.036                  0.9941765      -0.1407019
1.04                   0.9942748      -0.7158485
1.044                  0.9952641       -1.305071
1.048                  0.9969768        -1.92865
1.052                  0.9991144       -2.600992
1.056                     1.0013        -3.32804
1.06                    1.003144       -4.106297
1.064                   1.004315       -4.923523
1.068                   1.004594       -5.760873
1.072                   1.003918       -6.596051
1.076                   1.002386       -7.406992
1.08                    1.000254       -8.175589
1.084                  0.9978836       -8.890929
1.088                   0.995691       -9.551517
1.092                  0.9940677       -10.16582
1.096                  0.9933115       -10.75131
1.1                    0.9935698       -11.33136
1.104                  0.9948096       -11.93099
1.108                  0.9968205       -12.57229
1.112                  0.9992517       -13.27023
1.116                   1.001674       -14.02999
1.12                    1.003655       -14.84623
1.124                   1.004836       -15.70399
1.128                   1.004993       -16.58138
1.132                   1.004078        -17.4532
1.136                   1.002228       -18.29494
1.14                   0.9997472       -19.08705
1.144                  0.9970591       -19.81837
1.148                  0.9946335       -20.48857
1.152                  0.9929056       -21.10864
1.156                  0.9921952       -21.69943
1.16                   0.9926457       -22.28808
1.164                  0.9941934       -22.90298
1.168                  0.9965758       -23.56853
1.172                  0.9993776        -24.3005
1.176                   1.002104       -25.10332
1.18                    1.004268       -25.96937
1.184                   1.005474        -26.8805
1.188                   1.005489       -27.81101
1.192                   1.004281       -28.73191
1.196                   1.002032       -29.61559
1.2                    0.9991082       -30.44042
1.204                  0.9960065       -31.19478
1.208                  0.9932698       -31.87959
1.212                  0.9913909       -32.50887
1.216                  0.9907221       -33.10779
1.22                   0.9914053       -33.70836
1.224                  0.9933407       -34.34347
1.228                  0.9962011       -35.04068
1.232                  0.9994884       -35.81708
1.236                   1.002622       -36.67628
1.24                    1.005041       -37.60799
1.244                   1.006299       -38.58992
1.248                   1.006144       -39.59154
1.252                   1.004561       -40.57889
1.256                   1.001786       -41.51999
1.26                   0.9982643       -42.39024
1.264                  0.9945913       -43.17693
1.268                  0.9914083       -43.88232
1.272                  0.9892912       -44.52419
1.276                  0.9886419       -45.13343
1.28                   0.9896077       -45.74873
1.284                  0.9920462        -46.4093
1.288                  0.9955464        -47.1474
1.292                   0.999499       -47.98228
1.296                   1.003205       -48.91685
1.3                     1.005996       -49.93752
1.304                   1.007351       -51.01667
1.308                   1.006982       -52.11712
1.312                    1.00489         -53.198
1.316                   1.001374       -54.22095
1.32                   0.9969883        -55.1566
1.324                  0.9924641       -55.99007
1.328                  0.9885875       -56.72479
1.332                  0.9860607        -57.3834
1.336                  0.9853696       -58.00481
1.34                   0.9866822       -58.63754
1.344                  0.9898059       -59.33047
1.348                  0.9942149       -60.12339
1.352                   0.999141       -61.03945
1.356                   1.003708       -62.08136
1.36                    1.007084       -63.23131
1.364                   1.008621       -64.45432
1.368                   1.007965       -65.70375
1.372                   1.005121       -66.92827
1.376                   1.000467       -68.07945
1.38                   0.9947101       -69.11967
1.384                  0.9887861       -70.02934
1.388                  0.9837112       -70.81228
1.392                  0.9804022       -71.49766
1.396                  0.9795007       -72.13662
1.4                    0.9812338       -72.79371
1.404                  0.9853526       -73.53437
1.408                   0.991164       -74.41205
1.412                  0.9976495       -75.45791
1.416                   1.003642       -76.67596
1.42                    1.008027       -78.04319
1.424                   1.009921       -79.51398
1.428                   1.008823       -81.02712
1.432                   1.004704       -82.51412
1.436                  0.9980345        -83.9088
1.44                   0.9897461       -85.15739
1.444                   0.981113       -86.22896
1.448                  0.9735641       -87.12445
1.452                  0.9684363       -87.88166
1.456                  0.9667123       -88.57281
1.46                   0.9687985       -89.29331
1.464                  0.9744065       -90.14308
1.468                  0.9825779       -91.20616
1.472                  0.9918432       -92.53465
1.476                   1.000474        -94.1409
1.48                    1.006767       -95.99803
1.484                   1.009308       -98.04615
1.488                   1.007187       -100.2013
1.492                   1.000151       -102.3654
1.496                  0.9886838       -104.4377
1.5                    0.9740074       -106.3274
1.504                  0.9579837         -107.97
1.508                  0.9428956       -109.3465
1.512                  0.9310972       -110.5011
1.516                  0.9245533       -111.5502
1.52                   0.9243645       -112.6724
1.524                  0.9304148        -114.078
1.528                  0.9412753       -115.9669
1.532                  0.9543929       -118.4926
1.536                  0.9664807       -121.7464
1.54                   0.9739699       -125.7611
1.544                  0.9734136       -130.5281
1.548                  0.9617903       -136.0175
1.552                  0.9367088       -142.1962
1.556                  0.8965348       -149.0451
1.56                   0.8404645       -156.5754
1.564                  0.7685742       -164.8525
1.568                  0.6818761       -174.0399
1.572                  0.5824486        175.5073
1.576                  0.4738275        163.0154
1.58                   0.3622786        146.6847
1.584                  0.2612728        122.1403
1.588                  0.2040834        82.43121
1.592                  0.2324177        37.95863
1.596                  0.3227798         8.46727
1.6                    0.4328083       -10.18583
1.604                  0.5436203        -23.8153
1.608                   0.647118        -34.9224
1.612                  0.7389717       -44.55366
1.616                  0.8166097       -53.17974
1.62                   0.8786227       -61.01902
1.624                  0.9245726       -68.16574
1.628                  0.9549231       -74.64676
1.632                   0.970997       -80.45038
1.636                  0.9749177       -85.54482
1.64                   0.9695096       -89.89441
1.644                  0.9581298        -93.4773
1.648                  0.9444027       -96.30607
1.652                  0.9318464       -98.44765
1.656                  0.9234173       -100.0344
1.66                   0.9210609       -101.2567
1.664                  0.9254149       -102.3326
1.668                  0.9357873       -103.4638
1.672                  0.9504269       -104.7975
1.676                  0.9669861        -106.407
1.68                   0.9830175       -108.2948
1.684                  0.9963842       -110.4092
1.688                   1.005538       -112.6639
1.692                   1.009664       -114.9563
1.696                   1.008721       -117.1817
1.7                     1.003389       -119.2453
1.704                  0.9949487       -121.0723
1.708                  0.9850882       -122.6184
1.712                   0.975649       -123.8778
1.716                  0.9683343       -124.8873
1.72                   0.9644196       -125.7229
1.724                  0.9645315       -126.4858
1.728                  0.9685532       -127.2826
1.732                   0.975682        -128.203
1.736                  0.9846251       -129.3043
1.74                   0.9938663       -130.6042
1.744                   1.001942       -132.0835
1.748                   1.007671       -133.6941
1.752                   1.010312         -135.37
1.756                   1.009644       -137.0376
1.76                    1.005972       -138.6264
1.764                   1.000061       -140.0781
1.768                  0.9930132       -141.3547
1.772                  0.9860894       -142.4452
1.776                  0.9805028       -143.3685
1.78                   0.9772096       -144.1716
1.784                  0.9767409       -144.9208
1.788                  0.9791146       -145.6895
1.792                  0.9838476        -146.543
1.796                  0.9900681       -147.5267
1.8                    0.9966909       -148.6592
1.804                   1.002617       -149.9319
1.808                   1.006915       -151.3129
1.812                   1.008961       -152.7542
1.816                   1.008516       -154.1999
1.82                    1.005753       -155.5945
1.824                   1.001214       -156.8909
1.828                  0.9957225       -158.0572
1.832                   0.990246       -159.0825
1.836                  0.9857369       -159.9788
1.84                   0.9829661       -160.7804
1.844                  0.9823872       -161.5372
1.848                  0.9840591        -162.306
1.852                  0.9876433       -163.1385
1.856                  0.9924799       -164.0727
1.86                   0.9977174       -165.1258
1.864                   1.002469       -166.2937
1.868                   1.005961       -167.5526
1.872                   1.007658       -168.8646
1.876                   1.007334       -170.1842
1.88                    1.005098       -171.4653
1.884                   1.001376       -172.6683
1.888                  0.9968314       -173.7657
1.892                    0.99226       -174.7472
1.896                  0.9884545       -175.6218
1.9                    0.9860663       -176.4167
1.904                  0.9854914       -177.1727
1.908                     0.9868       -177.9365
1.912                  0.9897302       -178.7517
1.916                  0.9937441       -179.6508
1.92                   0.9981317        179.3502
1.924                   1.002141        178.2537
1.928                   1.005107        177.0787
1.932                   1.006559        175.8569
1.936                   1.006286        174.6273
1.94                    1.004371        173.4295
1.944                   1.001168        172.2983
1.948                  0.9972425        171.2577
1.952                  0.9932804         170.317
1.956                  0.9899673         169.469
1.96                   0.9878724        168.6904
1.964                  0.9873455        167.9464
1.968                  0.9884567        167.1965
1.972                  0.9909862        166.4027
1.976                  0.9944708        165.5364
1.98                   0.9982926        164.5831
1.984                   1.001791        163.5443
1.988                   1.004379        162.4364
1.992                   1.005633        161.2872
1.996                   1.005365         160.131
2                       1.003644        159.0033
2.004                   1.000782        157.9349
2.008                  0.9972806        156.9472
2.012                  0.9937508        156.0487
2.016                  0.9908041        155.2327
2.02                    0.988948        154.4785
2.024                  0.9884948         153.755
2.028                  0.9895062         153.026
2.032                  0.9917855        152.2577
2.036                  0.9949159        151.4242
2.04                   0.9983414        150.5126
2.044                   1.001467        149.5243
2.048                    1.00376         148.474
2.052                   1.004842         147.387
2.056                   1.004543        146.2947
2.06                    1.002929        145.2291
2.064                   1.000289        144.2184
2.068                  0.9970853        143.2819
2.072                  0.9938742        142.4266
2.076                  0.9912132        141.6463
2.08                   0.9895621        140.9216
2.084                  0.9892001        140.2238
2.088                  0.9901765        139.5198
2.092                  0.9923031        138.7788
2.096                  0.9951924        137.9773
2.1                    0.9983298        137.1039
2.104                   1.001167        136.1602
2.108                   1.003217        135.1603
2.112                   1.004135        134.1278
2.116                   1.003774        133.0919
2.12                    1.002205        132.0823
2.124                  0.9997049        131.1249
2.128                  0.9967087         130.237
2.132                  0.9937377        129.4248
2.136                  0.9913077        128.6813
2.14                   0.9898392        127.9881
2.144                  0.9895815        127.3181
2.148                   0.990567        126.6402
2.152                  0.9926081         125.926
2.156                  0.9953326        125.1543
2.16                   0.9982536        124.3147
2.164                   1.000858        123.4097
2.168                   1.002695        122.4532
2.172                   1.003451        121.4678
2.176                   1.003001        120.4813
2.18                    1.001427        119.5215
2.184                   0.999003        118.6126
2.188                  0.9961499          117.77
2.192                  0.9933623        116.9986
2.196                  0.9911251        116.2911
2.2                    0.9898248        115.6289
2.204                  0.9896822        114.9859
2.208                  0.9907101        114.3329
2.212                  0.9927136        113.6429
2.216                  0.9953271        112.8968
2.22                    0.998082        112.0856
2.224                   1.000491        111.2128
2.228                   1.002133        110.2922
2.232                   1.002723        109.3464
2.236                   1.002161        108.4019
2.24                    1.000543        107.4853
2.244                  0.9981484        106.6191
2.248                  0.9953898        105.8172
2.252                  0.9927452         105.083
2.256                  0.9906736        104.4084
2.26                    0.989533        103.7745
2.264                  0.9895156        103.1558
2.268                  0.9906124         102.524
2.272                  0.9926158        101.8539
2.276                  0.9951594        101.1277
2.28                   0.9977847        100.3383
2.284                   1.000025        99.48994
2.288                   1.001483        98.59734
2.292                   1.001904        97.68273
2.296                   1.001209        96.77221
2.3                    0.9995156        95.89133
2.304                  0.9971116        95.06098
2.308                  0.9944098        94.29375
2.312                   0.991877        93.59152
2.316                  0.9899515        92.94498
2.32                   0.9889653        92.33486
2.324                  0.9890823        91.73552
2.328                  0.9902695        91.11954
2.332                  0.9923019        90.46294
2.336                  0.9948065         89.7496
2.34                   0.9973294        88.97385
2.344                  0.9994181        88.14129
2.348                   1.000699        87.26737
2.352                   1.000941        86.37466