! TOUCHSTONE file generated by CST MICROWAVE STUDIO
! Date and time: Thu May 12 14:30:05 2022
! Project name: AppElm_antenne_dipole_FR4.cst
! Parameters = {L=38.8; e=0.035; f=2.45e+09; h=1.6; i=0.92; l1=4; lambda=122.449; ls=30; wl=1.7; ws=80}
! Header version: 2018
! Port assignment regex: !\s*Touchstone port\s*([0-9]+)\s*=\s*(CST MWS port|CST DS port)\s*([0-9]+|Zmin|Zmax)\s*\(\"(.*)\"\)(\s*mode\s*([0-9]+))?.*
! Touchstone port assignment:
! Touchstone port 1 = CST MWS port 1 ("")
# GHz S MA R 50
0                      0.9999526              -0
0.004                  0.9999508      -0.0601091
0.008                  0.9999454      -0.1202085
0.012                  0.9999364      -0.1802885
0.016                   0.999924      -0.2403396
0.02                   0.9999078      -0.3003521
0.024                  0.9998882      -0.3603167
0.028                  0.9998652      -0.4202239
0.032                  0.9998388      -0.4800647
0.036                  0.9998091        -0.53983
0.04                    0.999776      -0.5995112
0.044                  0.9997399      -0.6590995
0.048                  0.9997007      -0.7185865
0.052                  0.9996586      -0.7779644
0.056                  0.9996136      -0.8372252
0.06                   0.9995657      -0.8963616
0.064                  0.9995152      -0.9553663
0.068                  0.9994623       -1.014233
0.072                   0.999407       -1.072954
0.076                  0.9993494       -1.131525
0.08                   0.9992897       -1.189939
0.084                  0.9992281       -1.248191
0.088                  0.9991647       -1.306277
0.092                  0.9990997       -1.364192
0.096                  0.9990332       -1.421932
0.1                    0.9989653       -1.479494
0.104                  0.9988965       -1.536875
0.108                  0.9988265       -1.594072
0.112                  0.9987559       -1.651084
0.116                  0.9986845       -1.707908
0.12                   0.9986129       -1.764545
0.124                  0.9985408       -1.820994
0.128                  0.9984688       -1.877254
0.132                  0.9983969       -1.933327
0.136                  0.9983254       -1.989213
0.14                   0.9982543       -2.044915
0.144                  0.9981838       -2.100434
0.148                  0.9981141       -2.155773
0.152                  0.9980456       -2.210936
0.156                  0.9979783       -2.265925
0.16                   0.9979121       -2.320747
0.164                  0.9978476       -2.375404
0.168                  0.9977848       -2.429903
0.172                  0.9977239       -2.484249
0.176                  0.9976649       -2.538449
0.18                   0.9976082       -2.592508
0.184                  0.9975537       -2.646434
0.188                  0.9975017       -2.700234
0.192                  0.9974523       -2.753917
0.196                  0.9974055        -2.80749
0.2                    0.9973616       -2.860962
0.204                  0.9973207       -2.914342
0.208                  0.9972828        -2.96764
0.212                  0.9972481       -3.020864
0.216                  0.9972165       -3.074025
0.22                   0.9971883       -3.127134
0.224                  0.9971635       -3.180199
0.228                  0.9971421       -3.233233
0.232                  0.9971244       -3.286245
0.236                  0.9971101       -3.339246
0.24                   0.9970994       -3.392249
0.244                  0.9970924       -3.445263
0.248                  0.9970891         -3.4983
0.252                  0.9970894       -3.551372
0.256                  0.9970934       -3.604491
0.26                    0.997101       -3.657665
0.264                  0.9971125       -3.710909
0.268                  0.9971274       -3.764233
0.272                  0.9971458       -3.817647
0.276                  0.9971681       -3.871164
0.28                   0.9971936       -3.924794
0.284                  0.9972226       -3.978548
0.288                   0.997255       -4.032438
0.292                  0.9972907       -4.086471
0.296                  0.9973296       -4.140661
0.3                    0.9973716       -4.195015
0.304                  0.9974164       -4.249546
0.308                  0.9974644        -4.30426
0.312                   0.997515       -4.359167
0.316                  0.9975684       -4.414277
0.32                    0.997624       -4.469598
0.324                  0.9976823       -4.525137
0.328                  0.9977426       -4.580901
0.332                  0.9978052         -4.6369
0.336                  0.9978694       -4.693138
0.34                   0.9979356       -4.749622
0.344                  0.9980034       -4.806358
0.348                  0.9980724       -4.863351
0.352                  0.9981429       -4.920606
0.356                  0.9982143       -4.978129
0.36                   0.9982865       -5.035921
0.364                  0.9983596       -5.093985
0.368                   0.998433       -5.152328
0.372                   0.998507       -5.210947
0.376                   0.998581       -5.269847
0.38                   0.9986549       -5.329028
0.384                  0.9987285       -5.388492
0.388                  0.9988017       -5.448237
0.392                  0.9988744       -5.508263
0.396                  0.9989461        -5.56857
0.4                    0.9990168       -5.629156
0.404                  0.9990865       -5.690018
0.408                  0.9991547       -5.751156
0.412                  0.9992214       -5.812564
0.416                  0.9992864        -5.87424
0.42                   0.9993494        -5.93618
0.424                  0.9994104       -5.998377
0.428                  0.9994692        -6.06083
0.432                  0.9995255       -6.123531
0.436                  0.9995793       -6.186473
0.44                   0.9996305       -6.249653
0.444                  0.9996788       -6.313062
0.448                  0.9997242       -6.376693
0.452                  0.9997666       -6.440538
0.456                  0.9998057       -6.504591
0.46                   0.9998414       -6.568842
0.464                  0.9998738       -6.633284
0.468                  0.9999026       -6.697905
0.472                  0.9999278       -6.762701
0.476                  0.9999494       -6.827659
0.48                   0.9999672        -6.89277
0.484                  0.9999812       -6.958026
0.488                  0.9999913       -7.023415
0.492                  0.9999976       -7.088928
0.496                  0.9999999       -7.154556
0.5                    0.9999983       -7.220286
0.504                  0.9999927       -7.286112
0.508                   0.999983       -7.352019
0.512                  0.9999695       -7.417999
0.516                  0.9999519       -7.484043
0.52                   0.9999305       -7.550139
0.524                  0.9999053       -7.616276
0.528                   0.999876       -7.682448
0.532                  0.9998432       -7.748641
0.536                  0.9998065       -7.814847
0.54                   0.9997661       -7.881057
0.544                  0.9997222        -7.94726
0.548                  0.9996747       -8.013448
0.552                  0.9996239       -8.079613
0.556                  0.9995699       -8.145745
0.56                   0.9995128       -8.211836
0.564                  0.9994524       -8.277878
0.568                  0.9993893       -8.343867
0.572                  0.9993234       -8.409791
0.576                  0.9992549       -8.475645
0.58                   0.9991838       -8.541424
0.584                  0.9991106       -8.607119
0.588                  0.9990351       -8.672729
0.592                  0.9989578       -8.738246
0.596                  0.9988787       -8.803665
0.6                     0.998798       -8.868986
0.604                  0.9987157       -8.934203
0.608                  0.9986324       -8.999311
0.612                  0.9985479       -9.064313
0.616                  0.9984627       -9.129203
0.62                   0.9983767       -9.193981
0.624                  0.9982904       -9.258647
0.628                  0.9982038       -9.323202
0.632                  0.9981172       -9.387645
0.636                  0.9980308       -9.451976
0.64                   0.9979446       -9.516202
0.644                  0.9978592       -9.580319
0.648                  0.9977745       -9.644335
0.652                  0.9976908       -9.708249
0.656                  0.9976082        -9.77207
0.66                    0.997527       -9.835801
0.664                  0.9974474       -9.899446
0.668                  0.9973696       -9.963011
0.672                  0.9972936       -10.02651
0.676                  0.9972198       -10.08994
0.68                   0.9971484       -10.15331
0.684                  0.9970794       -10.21663
0.688                  0.9970129       -10.27991
0.692                  0.9969494       -10.34316
0.696                  0.9968887       -10.40638
0.7                    0.9968312        -10.4696
0.704                  0.9967768       -10.53281
0.708                  0.9967258       -10.59603
0.712                  0.9966783       -10.65928
0.716                  0.9966343       -10.72255
0.72                    0.996594       -10.78587
0.724                  0.9965574       -10.84925
0.728                  0.9965247        -10.9127
0.732                   0.996496       -10.97623
0.736                  0.9964713       -11.03986
0.74                   0.9964505       -11.10359
0.744                   0.996434       -11.16745
0.748                  0.9964214       -11.23145
0.752                   0.996413       -11.29559
0.756                  0.9964087        -11.3599
0.76                   0.9964086       -11.42439
0.764                  0.9964126       -11.48907
0.768                  0.9964208       -11.55396
0.772                  0.9964329       -11.61907
0.776                  0.9964491       -11.68442
0.78                   0.9964693       -11.75001
0.784                  0.9964935       -11.81586
0.788                  0.9965212       -11.88199
0.792                  0.9965529       -11.94841
0.796                  0.9965883       -12.01512
0.8                    0.9966271       -12.08216
0.804                  0.9966693       -12.14952
0.808                  0.9967147       -12.21722
0.812                  0.9967633       -12.28527
0.816                   0.996815       -12.35369
0.82                   0.9968696       -12.42248
0.824                  0.9969267       -12.49165
0.828                  0.9969864       -12.56122
0.832                  0.9970483        -12.6312
0.836                  0.9971125       -12.70159
0.84                   0.9971784        -12.7724
0.844                  0.9972462       -12.84364
0.848                  0.9973155       -12.91533
0.852                  0.9973861       -12.98745
0.856                  0.9974579       -13.06003
0.86                   0.9975305       -13.13308
0.864                  0.9976038       -13.20658
0.868                  0.9976774       -13.28056
0.872                  0.9977513         -13.355
0.876                  0.9978251       -13.42993
0.88                   0.9978987       -13.50533
0.884                  0.9979717       -13.58122
0.888                  0.9980439       -13.65758
0.892                  0.9981151       -13.73444
0.896                  0.9981851       -13.81178
0.9                    0.9982536        -13.8896
0.904                  0.9983205       -13.96791
0.908                  0.9983854        -14.0467
0.912                  0.9984481       -14.12596
0.916                  0.9985085       -14.20571
0.92                   0.9985662       -14.28592
0.924                  0.9986211       -14.36661
0.928                  0.9986729       -14.44776
0.932                  0.9987212       -14.52937
0.936                  0.9987664       -14.61143
0.94                   0.9988078       -14.69394
0.944                  0.9988454       -14.77688
0.948                  0.9988789       -14.86026
0.952                  0.9989083       -14.94407
0.956                  0.9989333       -15.02829
0.96                   0.9989537       -15.11292
0.964                  0.9989695       -15.19794
0.968                  0.9989804       -15.28336
0.972                  0.9989864       -15.36915
0.976                  0.9989875       -15.45531
0.98                   0.9989833       -15.54183
0.984                  0.9989738       -15.62869
0.988                   0.998959       -15.71589
0.992                  0.9989389       -15.80341
0.996                  0.9989133       -15.89125
1                      0.9988821       -15.97939
1.004                  0.9988455       -16.06782
1.008                  0.9988031       -16.15652
1.012                  0.9987552       -16.24549
1.016                  0.9987018       -16.33472
1.02                   0.9986427       -16.42418
1.024                  0.9985782       -16.51389
1.028                  0.9985082        -16.6038
1.032                  0.9984326        -16.6939
1.036                  0.9983516       -16.78422
1.04                   0.9982654       -16.87474
1.044                  0.9981739       -16.96539
1.048                  0.9980772       -17.05623
1.052                  0.9979755       -17.14721
1.056                  0.9978689       -17.23835
1.06                   0.9977576        -17.3296
1.064                  0.9976416       -17.42099
1.068                  0.9975212       -17.51249
1.072                  0.9973963       -17.60406
1.076                  0.9972674       -17.69578
1.08                   0.9971344       -17.78758
1.084                  0.9969979       -17.87943
1.088                  0.9968576       -17.97137
1.092                  0.9967141       -18.06341
1.096                  0.9965673       -18.15548
1.1                    0.9964177       -18.24766
1.104                  0.9962655       -18.33987
1.108                  0.9961107       -18.43213
1.112                  0.9959538       -18.52445
1.116                  0.9957949       -18.61682
1.12                   0.9956344       -18.70927
1.124                  0.9954723       -18.80173
1.128                  0.9953091       -18.89426
1.132                   0.995145       -18.98685
1.136                  0.9949802       -19.07949
1.14                    0.994815        -19.1722
1.144                  0.9946497       -19.26497
1.148                  0.9944845        -19.3578
1.152                  0.9943197       -19.45072
1.156                  0.9941557       -19.54372
1.16                   0.9939924       -19.63681
1.164                  0.9938303          -19.73
1.168                  0.9936696        -19.8233
1.172                  0.9935107       -19.91672
1.176                  0.9933536       -20.01027
1.18                   0.9931986       -20.10396
1.184                  0.9930461        -20.1978
1.188                  0.9928961       -20.29181
1.192                   0.992749         -20.386
1.196                  0.9926049       -20.48039
1.2                    0.9924639       -20.57499
1.204                  0.9923264       -20.66982
1.208                  0.9921925       -20.76489
1.212                  0.9920621       -20.86023
1.216                  0.9919357       -20.95585
1.22                   0.9918134       -21.05177
1.224                  0.9916953       -21.14801
1.228                  0.9915814       -21.24459
1.232                  0.9914718       -21.34152
1.236                  0.9913668       -21.43884
1.24                   0.9912662       -21.53656
1.244                  0.9911703       -21.63471
1.248                  0.9910791        -21.7333
1.252                  0.9909923       -21.83236
1.256                  0.9909105       -21.93191
1.26                   0.9908333       -22.03198
1.264                  0.9907606       -22.13258
1.268                  0.9906928       -22.23374
1.272                  0.9906293       -22.33548
1.276                  0.9905705       -22.43783
1.28                   0.9905161       -22.54081
1.284                   0.990466       -22.64445
1.288                  0.9904201       -22.74876
1.292                  0.9903784       -22.85377
1.296                  0.9903406        -22.9595
1.3                    0.9903066       -23.06597
1.304                  0.9902762       -23.17321
1.308                  0.9902492       -23.28124
1.312                  0.9902254       -23.39009
1.316                  0.9902046       -23.49976
1.32                   0.9901866       -23.61028
1.324                  0.9901711       -23.72168
1.328                  0.9901578       -23.83397
1.332                  0.9901465       -23.94717
1.336                  0.9901368       -24.06131
1.34                   0.9901285       -24.17639
1.344                  0.9901214       -24.29244
1.348                  0.9901149       -24.40948
1.352                  0.9901089       -24.52751
1.356                  0.9901028       -24.64655
1.36                   0.9900965       -24.76663
1.364                  0.9900897       -24.88775
1.368                  0.9900817       -25.00992
1.372                  0.9900723       -25.13316
1.376                  0.9900613       -25.25749
1.38                   0.9900479        -25.3829
1.384                  0.9900322       -25.50941
1.388                  0.9900134       -25.63703
1.392                  0.9899914       -25.76577
1.396                  0.9899655       -25.89563
1.4                    0.9899356       -26.02661
1.404                  0.9899012       -26.15873
1.408                  0.9898617         -26.292
1.412                   0.989817        -26.4264
1.416                  0.9897665       -26.56194
1.42                     0.98971       -26.69864
1.424                  0.9896469       -26.83648
1.428                   0.989577       -26.97546
1.432                  0.9894997       -27.11559
1.436                  0.9894148       -27.25686
1.44                   0.9893218       -27.39928
1.444                  0.9892207       -27.54283
1.448                  0.9891106       -27.68752
1.452                  0.9889916       -27.83333
1.456                  0.9888631       -27.98027
1.46                    0.988725       -28.12833
1.464                  0.9885769       -28.27749
1.468                  0.9884183       -28.42776
1.472                  0.9882494       -28.57912
1.476                  0.9880695       -28.73157
1.48                   0.9878783       -28.88509
1.484                  0.9876761       -29.03968
1.488                  0.9874621       -29.19533
1.492                  0.9872362       -29.35203
1.496                  0.9869985       -29.50976
1.5                    0.9867486       -29.66852
1.504                  0.9864863       -29.82829
1.508                  0.9862115       -29.98907
1.512                  0.9859241       -30.15084
1.516                   0.985624       -30.31359
1.52                   0.9853111       -30.47731
1.524                  0.9849854       -30.64198
1.528                  0.9846467       -30.80761
1.532                  0.9842949       -30.97417
1.536                  0.9839302       -31.14165
1.54                   0.9835524       -31.31005
1.544                  0.9831617       -31.47935
1.548                  0.9827579       -31.64955
1.552                  0.9823413       -31.82063
1.556                  0.9819119       -31.99258
1.56                   0.9814696       -32.16541
1.564                  0.9810147       -32.33908
1.568                  0.9805472       -32.51362
1.572                  0.9800673         -32.689
1.576                  0.9795752       -32.86521
1.58                    0.979071       -33.04227
1.584                  0.9785548       -33.22015
1.588                  0.9780268       -33.39886
1.592                  0.9774874        -33.5784
1.596                  0.9769365       -33.75877
1.6                    0.9763747       -33.93996
1.604                   0.975802       -34.12198
1.608                  0.9752186       -34.30482
1.612                  0.9746251        -34.4885
1.616                  0.9740213       -34.67302
1.62                   0.9734079       -34.85839
1.624                  0.9727848        -35.0446
1.628                  0.9721526       -35.23169
1.632                  0.9715113       -35.41964
1.636                  0.9708615       -35.60848
1.64                   0.9702034       -35.79822
1.644                  0.9695371       -35.98887
1.648                  0.9688632       -36.18046
1.652                  0.9681817         -36.373
1.656                  0.9674931       -36.56651
1.66                   0.9667978       -36.76101
1.664                  0.9660958       -36.95653
1.668                  0.9653875       -37.15309
1.672                  0.9646732       -37.35073
1.676                  0.9639531       -37.54946
1.68                   0.9632276       -37.74932
1.684                  0.9624966       -37.95034
1.688                  0.9617608       -38.15255
1.692                    0.96102         -38.356
1.696                  0.9602747       -38.56072
1.7                    0.9595249       -38.76674
1.704                  0.9587709       -38.97411
1.708                  0.9580127       -39.18287
1.712                  0.9572505       -39.39307
1.716                  0.9564843       -39.60475
1.72                   0.9557145       -39.81795
1.724                  0.9549408       -40.03273
1.728                  0.9541633       -40.24914
1.732                  0.9533823       -40.46722
1.736                  0.9525974       -40.68704
1.74                   0.9518086       -40.90864
1.744                  0.9510162       -41.13209
1.748                  0.9502198       -41.35743
1.752                  0.9494191       -41.58474
1.756                  0.9486142       -41.81406
1.76                   0.9478049       -42.04545
1.764                  0.9469909       -42.27899
1.768                  0.9461718       -42.51473
1.772                  0.9453473       -42.75273
1.776                  0.9445175       -42.99306
1.78                   0.9436814       -43.23579
1.784                  0.9428391       -43.48098
1.788                  0.9419898       -43.72869
1.792                  0.9411332         -43.979
1.796                  0.9402687       -44.23197
1.8                    0.9393959       -44.48766
1.804                  0.9385139       -44.74616
1.808                  0.9376223       -45.00752
1.812                  0.9367206       -45.27181
1.816                  0.9358075       -45.53911
1.82                   0.9348829       -45.80948
1.824                  0.9339458       -46.08299
1.828                  0.9329953        -46.3597
1.832                  0.9320307       -46.63969
1.836                  0.9310508       -46.92302
1.84                   0.9300551       -47.20977
1.844                  0.9290424       -47.49999
1.848                  0.9280117       -47.79376
1.852                  0.9269621       -48.09114
1.856                  0.9258925       -48.39219
1.86                   0.9248019       -48.69699
1.864                  0.9236891        -49.0056
1.868                  0.9225528       -49.31807
1.872                  0.9213922       -49.63447
1.876                  0.9202059       -49.95487
1.88                   0.9189928       -50.27933
1.884                  0.9177515        -50.6079
1.888                  0.9164808       -50.94064
1.892                  0.9151795       -51.27762
1.896                  0.9138461       -51.61887
1.9                    0.9124796       -51.96448
1.904                  0.9110783       -52.31449
1.908                  0.9096411       -52.66895
1.912                  0.9081666       -53.02791
1.916                  0.9066533       -53.39145
1.92                   0.9050999       -53.75958
1.924                  0.9035051       -54.13236
1.928                  0.9018671       -54.50986
1.932                   0.900185       -54.89211
1.936                  0.8984571       -55.27916
1.94                    0.896682       -55.67105
1.944                  0.8948583       -56.06783
1.948                  0.8929845       -56.46954
1.952                  0.8910593       -56.87622
1.956                  0.8890813       -57.28793
1.96                   0.8870491       -57.70468
1.964                  0.8849612       -58.12653
1.968                  0.8828161       -58.55352
1.972                  0.8806127       -58.98566
1.976                  0.8783494       -59.42302
1.98                    0.876025       -59.86562
1.984                   0.873638        -60.3135
1.988                  0.8711873       -60.76668
1.992                  0.8686714       -61.22522
1.996                  0.8660892       -61.68913
2                      0.8634392       -62.15847
2.004                  0.8607203       -62.63325
2.008                  0.8579313        -63.1135
2.012                  0.8550711       -63.59928
2.016                  0.8521384       -64.09058
2.02                    0.849132       -64.58748
2.024                  0.8460511       -65.08998
2.028                  0.8428943       -65.59813
2.032                   0.839661       -66.11194
2.036                  0.8363497       -66.63147
2.04                   0.8329597       -67.15675
2.044                  0.8294902        -67.6878
2.048                  0.8259403       -68.22466
2.052                  0.8223089       -68.76739
2.056                  0.8185954       -69.31599
2.06                   0.8147991       -69.87052
2.064                  0.8109192       -70.43101
2.068                  0.8069551       -70.99753
2.072                  0.8029061       -71.57007
2.076                  0.7987717       -72.14872
2.08                   0.7945514       -72.73349
2.084                  0.7902448       -73.32447
2.088                  0.7858514       -73.92167
2.092                  0.7813709       -74.52516
2.096                  0.7768028       -75.13501
2.1                    0.7721472       -75.75125
2.104                  0.7674035       -76.37395
2.108                  0.7625719       -77.00318
2.112                  0.7576521         -77.639
2.116                  0.7526443       -78.28149
2.12                   0.7475483       -78.93071
2.124                  0.7423642       -79.58677
2.128                  0.7370923       -80.24972
2.132                  0.7317329       -80.91966
2.136                  0.7262861       -81.59667
2.14                   0.7207522       -82.28088
2.144                  0.7151318       -82.97237
2.148                  0.7094251       -83.67125
2.152                  0.7036329       -84.37763
2.156                  0.6977558       -85.09165
2.16                   0.6917942       -85.81344
2.164                  0.6857491       -86.54314
2.168                  0.6796212       -87.28087
2.172                  0.6734114        -88.0268
2.176                  0.6671208       -88.78112
2.18                   0.6607502       -89.54395
2.184                  0.6543007       -90.31552
2.188                  0.6477737       -91.09602
2.192                  0.6411702       -91.88562
2.196                  0.6344917       -92.68457
2.2                    0.6277396       -93.49311
2.204                  0.6209152       -94.31145
2.208                  0.6140202       -95.13989
2.212                  0.6070563       -95.97868
2.216                  0.6000252       -96.82812
2.22                   0.5929286       -97.68852
2.224                  0.5857686       -98.56021
2.228                  0.5785472       -99.44357
2.232                  0.5712663       -100.3389
2.236                  0.5639281       -101.2467
2.24                   0.5565352       -102.1673
2.244                  0.5490897       -103.1012
2.248                  0.5415943       -104.0488
2.252                  0.5340515       -105.0107
2.256                  0.5264641       -105.9874
2.26                   0.5188349       -106.9794
2.264                  0.5111669       -107.9874
2.268                  0.5034632        -109.012
2.272                  0.4957271       -110.0538
2.276                  0.4879619       -111.1137
2.28                   0.4801713       -112.1924
2.284                  0.4723588       -113.2906
2.288                  0.4645284       -114.4093
2.292                  0.4566841       -115.5494
2.296                  0.4488302       -116.7119
2.3                    0.4409709       -117.8978
2.304                   0.433111       -119.1082
2.308                  0.4252555       -120.3443
2.312                  0.4174093       -121.6074
2.316                  0.4095779       -122.8988
2.32                   0.4017668       -124.2199
2.324                  0.3939819       -125.5721
2.328                  0.3862296       -126.9572
2.332                  0.3785163       -128.3766
2.336                  0.3708488       -129.8322
2.34                   0.3632347       -131.3258
2.344                  0.3556814       -132.8593
2.348                  0.3481971       -134.4349
2.352                  0.3407904       -136.0545