! TOUCHSTONE file generated by CST MICROWAVE STUDIO
! Date and time: Thu May 12 14:29:58 2022
! Project name: AppElm_antenne_dipole_FR4.cst
! Parameters = {L=38.8; e=0.035; f=2.45e+09; h=1.6; i=0.64; l1=4; lambda=122.449; ls=30; wl=1.7; ws=80}
! Header version: 2018
! Port assignment regex: !\s*Touchstone port\s*([0-9]+)\s*=\s*(CST MWS port|CST DS port)\s*([0-9]+|Zmin|Zmax)\s*\(\"(.*)\"\)(\s*mode\s*([0-9]+))?.*
! Touchstone port assignment:
! Touchstone port 1 = CST MWS port 1 ("")
# GHz S MA R 50
0                      0.9977846              -0
0.004                  0.9977863     -0.04829447
0.008                  0.9977915     -0.09660074
0.012                  0.9978002      -0.1449306
0.016                  0.9978123      -0.1932957
0.02                   0.9978277      -0.2417077
0.024                  0.9978466      -0.2901779
0.028                  0.9978687      -0.3387177
0.032                  0.9978941      -0.3873381
0.036                  0.9979225      -0.4360501
0.04                    0.997954      -0.4848641
0.044                  0.9979886      -0.5337903
0.048                  0.9980259      -0.5828389
0.052                  0.9980659      -0.6320192
0.056                  0.9981084      -0.6813404
0.06                   0.9981537      -0.7308114
0.064                   0.998201      -0.7804404
0.068                  0.9982507      -0.8302354
0.072                  0.9983022      -0.8802035
0.076                  0.9983557      -0.9303519
0.08                   0.9984109      -0.9806866
0.084                  0.9984676       -1.031213
0.088                  0.9985255       -1.081938
0.092                  0.9985848       -1.132864
0.096                  0.9986448       -1.183997
0.1                    0.9987058       -1.235339
0.104                  0.9987673       -1.286894
0.108                  0.9988293       -1.338663
0.112                  0.9988913       -1.390649
0.116                  0.9989535       -1.442852
0.12                   0.9990155       -1.495272
0.124                  0.9990772        -1.54791
0.128                   0.999138       -1.600765
0.132                  0.9991983       -1.653835
0.136                  0.9992577       -1.707117
0.14                   0.9993157        -1.76061
0.144                  0.9993725        -1.81431
0.148                  0.9994279       -1.868213
0.152                  0.9994816       -1.922314
0.156                  0.9995334        -1.97661
0.16                   0.9995831       -2.031094
0.164                  0.9996306        -2.08576
0.168                  0.9996758       -2.140601
0.172                  0.9997186       -2.195612
0.176                  0.9997589       -2.250784
0.18                   0.9997964       -2.306109
0.184                  0.9998308       -2.361579
0.188                  0.9998626       -2.417187
0.192                  0.9998911       -2.472921
0.196                  0.9999165       -2.528775
0.2                    0.9999387       -2.584736
0.204                  0.9999575       -2.640798
0.208                   0.999973       -2.696948
0.212                  0.9999848       -2.753177
0.216                  0.9999934       -2.809474
0.22                   0.9999985        -2.86583
0.224                          1       -2.922233
0.228                  0.9999978       -2.978673
0.232                  0.9999922       -3.035139
0.236                  0.9999831        -3.09162
0.24                   0.9999705       -3.148107
0.244                  0.9999545       -3.204588
0.248                  0.9999349       -3.261053
0.252                   0.999912       -3.317492
0.256                  0.9998857       -3.373895
0.26                   0.9998564       -3.430252
0.264                  0.9998237       -3.486554
0.268                  0.9997881       -3.542791
0.272                  0.9997495       -3.598954
0.276                  0.9997082       -3.655035
0.28                    0.999664       -3.711026
0.284                  0.9996175       -3.766918
0.288                  0.9995683       -3.822705
0.292                   0.999517       -3.878378
0.296                  0.9994634       -3.933933
0.3                     0.999408       -3.989363
0.304                  0.9993508       -4.044662
0.308                  0.9992917       -4.099826
0.312                  0.9992315       -4.154849
0.316                  0.9991701       -4.209729
0.32                   0.9991073       -4.264463
0.324                  0.9990438       -4.319048
0.328                  0.9989796       -4.373481
0.332                   0.998915       -4.427762
0.336                  0.9988501        -4.48189
0.34                   0.9987851       -4.535864
0.344                  0.9987201       -4.589687
0.348                  0.9986555       -4.643358
0.352                  0.9985914        -4.69688
0.356                  0.9985282       -4.750254
0.36                   0.9984657       -4.803486
0.364                  0.9984045       -4.856578
0.368                  0.9983444       -4.909535
0.372                  0.9982859       -4.962362
0.376                  0.9982292       -5.015065
0.38                   0.9981742        -5.06765
0.384                  0.9981214       -5.120123
0.388                  0.9980706       -5.172493
0.392                  0.9980223       -5.224768
0.396                  0.9979765       -5.276955
0.4                    0.9979333       -5.329065
0.404                  0.9978929       -5.381105
0.408                  0.9978555       -5.433087
0.412                  0.9978211       -5.485021
0.416                  0.9977899       -5.536918
0.42                   0.9977619       -5.588787
0.424                  0.9977374       -5.640642
0.428                  0.9977162       -5.692494
0.432                  0.9976985       -5.744355
0.436                  0.9976844       -5.796236
0.44                   0.9976739       -5.848152
0.444                  0.9976671       -5.900113
0.448                   0.997664       -5.952133
0.452                  0.9976645       -6.004223
0.456                  0.9976687       -6.056399
0.46                   0.9976766       -6.108673
0.464                  0.9976881       -6.161056
0.468                  0.9977033       -6.213562
0.472                  0.9977221       -6.266203
0.476                  0.9977444       -6.318993
0.48                   0.9977701       -6.371943
0.484                  0.9977993       -6.425065
0.488                  0.9978317       -6.478373
0.492                  0.9978672       -6.531876
0.496                   0.997906       -6.585585
0.5                    0.9979477       -6.639514
0.504                  0.9979922       -6.693672
0.508                  0.9980393       -6.748068
0.512                   0.998089       -6.802713
0.516                  0.9981411       -6.857616
0.52                   0.9981955       -6.912785
0.524                  0.9982519       -6.968229
0.528                  0.9983101       -7.023956
0.532                    0.99837       -7.079972
0.536                  0.9984313       -7.136283
0.54                    0.998494       -7.192897
0.544                  0.9985578       -7.249819
0.548                  0.9986224       -7.307051
0.552                  0.9986878       -7.364599
0.556                  0.9987535       -7.422467
0.56                   0.9988196       -7.480656
0.564                  0.9988856       -7.539168
0.568                  0.9989514       -7.598006
0.572                  0.9990168        -7.65717
0.576                  0.9990816       -7.716657
0.58                   0.9991456       -7.776469
0.584                  0.9992085       -7.836605
0.588                    0.99927       -7.897062
0.592                  0.9993301       -7.957837
0.596                  0.9993885       -8.018924
0.6                     0.999445       -8.080325
0.604                  0.9994995        -8.14203
0.608                  0.9995516       -8.204036
0.612                  0.9996012       -8.266336
0.616                  0.9996482       -8.328924
0.62                   0.9996923       -8.391794
0.624                  0.9997336       -8.454934
0.628                  0.9997717       -8.518342
0.632                  0.9998065       -8.582004
0.636                  0.9998378       -8.645915
0.64                   0.9998656       -8.710064
0.644                  0.9998897        -8.77444
0.648                  0.9999101       -8.839035
0.652                  0.9999265       -8.903837
0.656                  0.9999389       -8.968834
0.66                   0.9999476       -9.034017
0.664                   0.999952       -9.099375
0.668                  0.9999522       -9.164895
0.672                  0.9999483       -9.230567
0.676                  0.9999401       -9.296377
0.68                   0.9999279       -9.362314
0.684                  0.9999114       -9.428367
0.688                  0.9998906       -9.494524
0.692                  0.9998658       -9.560772
0.696                  0.9998368       -9.627101
0.7                    0.9998037         -9.6935
0.704                  0.9997667       -9.759955
0.708                  0.9997256       -9.826457
0.712                  0.9996807       -9.892992
0.716                  0.9996321       -9.959554
0.72                   0.9995799       -10.02613
0.724                   0.999524       -10.09271
0.728                  0.9994648       -10.15929
0.732                  0.9994024       -10.22585
0.736                  0.9993369       -10.29239
0.74                   0.9992687       -10.35889
0.744                  0.9991974       -10.42536
0.748                  0.9991236       -10.49178
0.752                  0.9990476       -10.55816
0.756                  0.9989692       -10.62447
0.76                    0.998889       -10.69072
0.764                   0.998807        -10.7569
0.768                  0.9987234       -10.82301
0.772                  0.9986385       -10.88905
0.776                  0.9985526       -10.95501
0.78                   0.9984657       -11.02089
0.784                  0.9983782       -11.08669
0.788                  0.9982903       -11.15241
0.792                  0.9982023       -11.21806
0.796                  0.9981144       -11.28362
0.8                    0.9980267       -11.34911
0.804                  0.9979397       -11.41453
0.808                  0.9978533       -11.47987
0.812                  0.9977681       -11.54516
0.816                  0.9976841       -11.61038
0.82                   0.9976015       -11.67555
0.824                  0.9975207       -11.74068
0.828                  0.9974419       -11.80577
0.832                  0.9973651       -11.87082
0.836                  0.9972909       -11.93586
0.84                    0.997219       -12.00089
0.844                  0.9971499       -12.06591
0.848                  0.9970838       -12.13095
0.852                  0.9970208         -12.196
0.856                  0.9969611        -12.2611
0.86                   0.9969048       -12.32623
0.864                   0.996852       -12.39143
0.868                  0.9968031       -12.45671
0.872                  0.9967578       -12.52207
0.876                  0.9967165       -12.58754
0.88                   0.9966792       -12.65313
0.884                  0.9966462       -12.71886
0.888                  0.9966171       -12.78473
0.892                  0.9965925       -12.85077
0.896                   0.996572         -12.917
0.9                     0.996556       -12.98342
0.904                  0.9965442       -13.05007
0.908                  0.9965368       -13.11695
0.912                  0.9965336       -13.18407
0.916                  0.9965347       -13.25147
0.92                   0.9965401       -13.31915
0.924                  0.9965496       -13.38713
0.928                  0.9965632       -13.45544
0.932                  0.9965809       -13.52407
0.936                  0.9966025       -13.59306
0.94                   0.9966278       -13.66241
0.944                  0.9966569       -13.73215
0.948                  0.9966895       -13.80228
0.952                  0.9967253       -13.87283
0.956                  0.9967646        -13.9438
0.96                   0.9968067       -14.01522
0.964                  0.9968515       -14.08709
0.968                  0.9968992       -14.15942
0.972                  0.9969492       -14.23224
0.976                  0.9970014       -14.30555
0.98                   0.9970555       -14.37936
0.984                  0.9971113       -14.45368
0.988                  0.9971686       -14.52853
0.992                  0.9972271        -14.6039
0.996                  0.9972866       -14.67981
1                      0.9973467       -14.75627
1.004                  0.9974073       -14.83329
1.008                  0.9974677       -14.91085
1.012                  0.9975282       -14.98899
1.016                  0.9975881       -15.06769
1.02                   0.9976474       -15.14695
1.024                  0.9977055       -15.22679
1.028                  0.9977624        -15.3072
1.032                  0.9978178       -15.38819
1.036                   0.997871       -15.46977
1.04                   0.9979222       -15.55189
1.044                  0.9979709       -15.63459
1.048                  0.9980168       -15.71787
1.052                  0.9980596       -15.80169
1.056                  0.9980993       -15.88608
1.06                   0.9981354       -15.97102
1.064                  0.9981677       -16.05651
1.068                   0.998196       -16.14254
1.072                  0.9982199       -16.22909
1.076                  0.9982395       -16.31616
1.08                   0.9982543       -16.40378
1.084                  0.9982641       -16.49189
1.088                  0.9982688       -16.58046
1.092                  0.9982682       -16.66956
1.096                  0.9982623       -16.75912
1.1                    0.9982507       -16.84911
1.104                  0.9982333        -16.9396
1.108                  0.9982101       -17.03049
1.112                  0.9981809       -17.12182
1.116                  0.9981455       -17.21357
1.12                   0.9981041       -17.30569
1.124                  0.9980564        -17.3982
1.128                  0.9980024       -17.49108
1.132                  0.9979422       -17.58431
1.136                  0.9978756       -17.67789
1.14                   0.9978027       -17.77179
1.144                  0.9977236         -17.866
1.148                  0.9976381       -17.96051
1.152                  0.9975465       -18.05531
1.156                  0.9974488       -18.15038
1.16                    0.997345        -18.2457
1.164                  0.9972352       -18.34127
1.168                  0.9971196       -18.43708
1.172                  0.9969983        -18.5331
1.176                  0.9968716       -18.62933
1.18                   0.9967395       -18.72575
1.184                   0.996602       -18.82237
1.188                  0.9964597       -18.91916
1.192                  0.9963124       -19.01612
1.196                  0.9961607       -19.11324
1.2                    0.9960046       -19.21051
1.204                  0.9958445       -19.30792
1.208                  0.9956804       -19.40547
1.212                  0.9955128       -19.50315
1.216                  0.9953419       -19.60096
1.22                    0.995168       -19.69889
1.224                  0.9949913       -19.79695
1.228                  0.9948122       -19.89513
1.232                  0.9946311       -19.99343
1.236                  0.9944479       -20.09185
1.24                   0.9942634       -20.19039
1.244                  0.9940777       -20.28906
1.248                   0.993891       -20.38787
1.252                  0.9937039        -20.4868
1.256                  0.9935165       -20.58588
1.26                   0.9933293        -20.6851
1.264                  0.9931423       -20.78449
1.268                  0.9929562       -20.88404
1.272                   0.992771       -20.98378
1.276                  0.9925872        -21.0837
1.28                   0.9924049       -21.18383
1.284                  0.9922247       -21.28418
1.288                  0.9920467       -21.38476
1.292                  0.9918709        -21.4856
1.296                  0.9916981        -21.5867
1.3                    0.9915282       -21.68809
1.304                  0.9913615       -21.78979
1.308                  0.9911982       -21.89182
1.312                  0.9910386       -21.99419
1.316                  0.9908829       -22.09694
1.32                   0.9907312       -22.20008
1.324                  0.9905835       -22.30365
1.328                  0.9904403       -22.40766
1.332                  0.9903014       -22.51214
1.336                  0.9901672       -22.61712
1.34                   0.9900376       -22.72262
1.344                  0.9899127       -22.82868
1.348                  0.9897925       -22.93531
1.352                  0.9896772       -23.04255
1.356                  0.9895666       -23.15043
1.36                   0.9894609       -23.25897
1.364                  0.9893598       -23.36821
1.368                  0.9892634       -23.47818
1.372                  0.9891716       -23.58889
1.376                  0.9890842        -23.7004
1.38                   0.9890013       -23.81271
1.384                  0.9889225       -23.92587
1.388                  0.9888478        -24.0399
1.392                  0.9887768       -24.15483
1.396                  0.9887095       -24.27069
1.4                    0.9886457       -24.38751
1.404                  0.9885849       -24.50532
1.408                  0.9885269       -24.62414
1.412                  0.9884716         -24.744
1.416                  0.9884184       -24.86492
1.42                   0.9883672       -24.98693
1.424                  0.9883174       -25.11007
1.428                   0.988269       -25.23434
1.432                  0.9882211       -25.35977
1.436                  0.9881737        -25.4864
1.44                   0.9881263       -25.61422
1.444                  0.9880784       -25.74328
1.448                  0.9880295       -25.87358
1.452                  0.9879794       -26.00515
1.456                  0.9879273       -26.13799
1.46                    0.987873       -26.27214
1.464                  0.9878158       -26.40759
1.468                  0.9877554       -26.54438
1.472                  0.9876912        -26.6825
1.476                  0.9876226       -26.82197
1.48                   0.9875493        -26.9628
1.484                  0.9874707       -27.10499
1.488                  0.9873862       -27.24857
1.492                  0.9872956       -27.39352
1.496                   0.987198       -27.53987
1.5                     0.987093        -27.6876
1.504                  0.9869803       -27.83673
1.508                  0.9868593       -27.98725
1.512                  0.9867294       -28.13917
1.516                  0.9865902       -28.29248
1.52                   0.9864414       -28.44718
1.524                  0.9862822       -28.60328
1.528                  0.9861125       -28.76076
1.532                  0.9859316       -28.91962
1.536                  0.9857393       -29.07985
1.54                   0.9855349       -29.24145
1.544                  0.9853184       -29.40441
1.548                   0.985089       -29.56873
1.552                  0.9848467       -29.73439
1.556                  0.9845911       -29.90137
1.56                   0.9843217       -30.06968
1.564                  0.9840383       -30.23931
1.568                  0.9837408       -30.41022
1.572                  0.9834286       -30.58243
1.576                  0.9831017       -30.75591
1.58                     0.98276       -30.93066
1.584                  0.9824029       -31.10664
1.588                  0.9820308       -31.28388
1.592                  0.9816432       -31.46232
1.596                    0.98124       -31.64198
1.6                    0.9808211       -31.82285
1.604                  0.9803866       -32.00489
1.608                  0.9799364       -32.18811
1.612                  0.9794705       -32.37249
1.616                  0.9789888       -32.55802
1.62                   0.9784915       -32.74469
1.624                  0.9779786       -32.93248
1.628                    0.97745       -33.12141
1.632                  0.9769062       -33.31144
1.636                  0.9763469       -33.50257
1.64                   0.9757727       -33.69481
1.644                  0.9751832       -33.88814
1.648                   0.974579       -34.08256
1.652                  0.9739604       -34.27807
1.656                  0.9733274       -34.47466
1.66                   0.9726803       -34.67234
1.664                  0.9720193       -34.87112
1.668                  0.9713448       -35.07097
1.672                  0.9706572       -35.27193
1.676                  0.9699564       -35.47399
1.68                    0.969243       -35.67717
1.684                  0.9685174       -35.88147
1.688                  0.9677797        -36.0869
1.692                  0.9670306       -36.29349
1.696                  0.9662701       -36.50125
1.7                    0.9654986        -36.7102
1.704                  0.9647166       -36.92035
1.708                  0.9639243       -37.13173
1.712                  0.9631222       -37.34438
1.716                  0.9623106       -37.55832
1.72                   0.9614896       -37.77357
1.724                  0.9606599       -37.99017
1.728                  0.9598215       -38.20817
1.732                   0.958975       -38.42759
1.736                  0.9581205       -38.64847
1.74                   0.9572583       -38.87086
1.744                  0.9563887       -39.09481
1.748                  0.9555119       -39.32036
1.752                  0.9546281       -39.54756
1.756                  0.9537375       -39.77646
1.76                   0.9528404       -40.00713
1.764                  0.9519369        -40.2396
1.768                  0.9510268       -40.47397
1.772                  0.9501105       -40.71027
1.776                   0.949188       -40.94857
1.78                   0.9482593       -41.18894
1.784                  0.9473244       -41.43145
1.788                   0.946383       -41.67618
1.792                  0.9454353       -41.92318
1.796                   0.944481       -42.17253
1.8                    0.9435199       -42.42432
1.804                  0.9425517       -42.67862
1.808                  0.9415764       -42.93551
1.812                  0.9405934       -43.19506
1.816                  0.9396024       -43.45738
1.82                    0.938603       -43.72252
1.824                  0.9375946        -43.9906
1.828                  0.9365769       -44.26167
1.832                   0.935549       -44.53584
1.836                  0.9345109        -44.8132
1.84                   0.9334611       -45.09382
1.844                  0.9323995       -45.37781
1.848                   0.931325       -45.66525
1.852                  0.9302369       -45.95623
1.856                  0.9291342       -46.25084
1.86                   0.9280162       -46.54918
1.864                  0.9268816       -46.85133
1.868                  0.9257295       -47.15739
1.872                  0.9245589       -47.46745
1.876                  0.9233685       -47.78159
1.88                   0.9221573       -48.09991
1.884                  0.9209239        -48.4225
1.888                  0.9196671       -48.74944
1.892                  0.9183856       -49.08083
1.896                  0.9170779       -49.41675
1.9                    0.9157428        -49.7573
1.904                  0.9143787       -50.10255
1.908                   0.912984       -50.45259
1.912                  0.9115573       -50.80751
1.916                  0.9100973       -51.16739
1.92                   0.9086019       -51.53231
1.924                  0.9070697       -51.90235
1.928                  0.9054992        -52.2776
1.932                  0.9038883       -52.65813
1.936                  0.9022358       -53.04401
1.94                   0.9005396       -53.43532
1.944                  0.8987981       -53.83214
1.948                  0.8970094       -54.23454
1.952                  0.8951719       -54.64259
1.956                  0.8932835       -55.05636
1.96                   0.8913427       -55.47591
1.964                  0.8893476       -55.90132
1.968                  0.8872962       -56.33265
1.972                  0.8851868       -56.76997
1.976                  0.8830177       -57.21333
1.98                   0.8807869        -57.6628
1.984                  0.8784926       -58.11844
1.988                   0.876133       -58.58031
1.992                  0.8737063       -59.04847
1.996                  0.8712108       -59.52298
2                      0.8686445       -60.00388
2.004                   0.866006       -60.49124
2.008                  0.8632932        -60.9851
2.012                  0.8605047       -61.48554
2.016                  0.8576386       -61.99258
2.02                   0.8546935       -62.50631
2.024                  0.8516674       -63.02675
2.028                  0.8485591       -63.55396
2.032                   0.845367       -64.08802
2.036                  0.8420894       -64.62894
2.04                    0.838725       -65.17679
2.044                  0.8352722       -65.73165
2.048                    0.83173       -66.29351
2.052                  0.8280967       -66.86248
2.056                  0.8243713       -67.43859
2.06                   0.8205524       -68.02193
2.064                   0.816639       -68.61251
2.068                    0.81263        -69.2104
2.072                  0.8085242       -69.81569
2.076                  0.8043209       -70.42841
2.08                    0.800019       -71.04864
2.084                  0.7956177       -71.67642
2.088                  0.7911162       -72.31188
2.092                  0.7865139       -72.95502
2.096                  0.7818101       -73.60597
2.1                    0.7770044       -74.26477
2.104                  0.7720961       -74.93153
2.108                  0.7670849       -75.60632
2.112                  0.7619705       -76.28926
2.116                  0.7567528       -76.98039
2.12                   0.7514315       -77.67989
2.124                  0.7460066       -78.38778
2.128                  0.7404783       -79.10423
2.132                  0.7348461       -79.82935
2.136                  0.7291111       -80.56324
2.14                   0.7232729       -81.30606
2.144                  0.7173322       -82.05796
2.148                  0.7112895       -82.81906
2.152                  0.7051452       -83.58953
2.156                  0.6989003       -84.36954
2.16                   0.6925552       -85.15927
2.164                  0.6861111        -85.9589
2.168                  0.6795688       -86.76864
2.172                  0.6729296       -87.58872
2.176                  0.6661945       -88.41932
2.18                   0.6593649       -89.26075
2.184                  0.6524422       -90.11319
2.188                   0.645428       -90.97697
2.192                  0.6383239       -91.85237
2.196                  0.6311317       -92.73966
2.2                    0.6238533       -93.63923
2.204                  0.6164907       -94.55138
2.208                  0.6090462       -95.47651
2.212                  0.6015217       -96.41499
2.216                  0.5939201       -97.36727
2.22                   0.5862436       -98.33378
2.224                   0.578495         -99.315
2.228                  0.5706772       -100.3115
2.232                  0.5627931       -101.3237
2.236                   0.554846       -102.3523
2.24                    0.546839       -103.3978
2.244                  0.5387757       -104.4609
2.248                  0.5306596       -105.5424
2.252                  0.5224948       -106.6429
2.256                  0.5142851       -107.7633
2.26                   0.5060349       -108.9044
2.264                  0.4977486       -110.0671
2.268                  0.4894308       -111.2524
2.272                  0.4810865       -112.4613
2.276                  0.4727208       -113.6949
2.28                   0.4643391       -114.9543
2.284                   0.455947       -116.2408
2.288                  0.4475506       -117.5558
2.292                  0.4391562       -118.9006
2.296                  0.4307703       -120.2767
2.3                       0.4224       -121.6856
2.304                  0.4140527       -123.1292
2.308                  0.4057361       -124.6091
2.312                  0.3974584       -126.1272
2.316                  0.3892282       -127.6855
2.32                   0.3810546       -129.2861
2.324                  0.3729473       -130.9312
2.328                  0.3649167        -132.623
2.332                  0.3569733       -134.3639
2.336                  0.3491286       -136.1565
2.34                   0.3413947       -138.0031
2.344                  0.3337845       -139.9065
2.348                  0.3263111       -141.8692
2.352                   0.318989       -143.8938