! TOUCHSTONE file generated by CST MICROWAVE STUDIO
! Date and time: Thu May 12 14:30:02 2022
! Project name: AppElm_antenne_dipole_FR4.cst
! Parameters = {L=38.8; e=0.035; f=2.45e+09; h=1.6; i=0.8; l1=4; lambda=122.449; ls=30; wl=1.7; ws=80}
! Header version: 2018
! Port assignment regex: !\s*Touchstone port\s*([0-9]+)\s*=\s*(CST MWS port|CST DS port)\s*([0-9]+|Zmin|Zmax)\s*\(\"(.*)\"\)(\s*mode\s*([0-9]+))?.*
! Touchstone port assignment:
! Touchstone port 1 = CST MWS port 1 ("")
# GHz S MA R 50
0                      0.9999145              -0
0.004                  0.9999142     -0.05501355
0.008                  0.9999133      -0.1100266
0.012                  0.9999122      -0.1650385
0.016                  0.9999103      -0.2200489
0.02                   0.9999082      -0.2750571
0.024                  0.9999054      -0.3300627
0.028                  0.9999021       -0.385065
0.032                  0.9998984      -0.4400638
0.036                   0.999894      -0.4950583
0.04                   0.9998893      -0.5500482
0.044                  0.9998843      -0.6050327
0.048                  0.9998785      -0.6600118
0.052                  0.9998725      -0.7149848
0.056                  0.9998659      -0.7699513
0.06                   0.9998589      -0.8249107
0.064                  0.9998516      -0.8798627
0.068                  0.9998438       -0.934807
0.072                  0.9998355      -0.9897433
0.076                  0.9998269       -1.044671
0.08                    0.999818        -1.09959
0.084                  0.9998086         -1.1545
0.088                  0.9997989         -1.2094
0.092                  0.9997889       -1.264291
0.096                  0.9997785       -1.319172
0.1                    0.9997679       -1.374043
0.104                   0.999757       -1.428904
0.108                  0.9997457       -1.483754
0.112                  0.9997344       -1.538594
0.116                  0.9997226       -1.593424
0.12                   0.9997108       -1.648243
0.124                  0.9996987       -1.703052
0.128                  0.9996865        -1.75785
0.132                   0.999674       -1.812638
0.136                  0.9996615       -1.867417
0.14                   0.9996488       -1.922185
0.144                  0.9996363       -1.976943
0.148                  0.9996235       -2.031693
0.152                  0.9996106       -2.086434
0.156                  0.9995978       -2.141166
0.16                    0.999585       -2.195891
0.164                  0.9995723       -2.250607
0.168                  0.9995595       -2.305317
0.172                  0.9995469       -2.360021
0.176                  0.9995344       -2.414719
0.18                   0.9995219       -2.469413
0.184                  0.9995098       -2.524103
0.188                  0.9994978        -2.57879
0.192                  0.9994858       -2.633475
0.196                  0.9994743       -2.688159
0.2                     0.999463       -2.742843
0.204                  0.9994519       -2.797529
0.208                  0.9994412       -2.852217
0.212                  0.9994308       -2.906908
0.216                  0.9994207       -2.961606
0.22                   0.9994111        -3.01631
0.224                  0.9994018       -3.071022
0.228                   0.999393       -3.125744
0.232                  0.9993847       -3.180478
0.236                  0.9993768       -3.235224
0.24                   0.9993694       -3.289987
0.244                  0.9993625       -3.344765
0.248                  0.9993562       -3.399563
0.252                  0.9993503       -3.454381
0.256                  0.9993451       -3.509222
0.26                   0.9993405       -3.564089
0.264                  0.9993365       -3.618982
0.268                  0.9993331       -3.673905
0.272                  0.9993303       -3.728859
0.276                  0.9993282       -3.783847
0.28                   0.9993267       -3.838872
0.284                   0.999326       -3.893936
0.288                  0.9993258       -3.949041
0.292                  0.9993264       -4.004189
0.296                  0.9993277       -4.059384
0.3                    0.9993296       -4.114629
0.304                  0.9993324       -4.169924
0.308                  0.9993357       -4.225274
0.312                  0.9993398       -4.280682
0.316                  0.9993445       -4.336149
0.32                   0.9993501       -4.391677
0.324                  0.9993564       -4.447271
0.328                  0.9993632       -4.502934
0.332                  0.9993707       -4.558667
0.336                  0.9993789       -4.614473
0.34                   0.9993878       -4.670356
0.344                  0.9993973       -4.726317
0.348                  0.9994075       -4.782359
0.352                  0.9994183       -4.838486
0.356                  0.9994296         -4.8947
0.36                   0.9994416       -4.951004
0.364                  0.9994541       -5.007399
0.368                  0.9994671        -5.06389
0.372                  0.9994807       -5.120477
0.376                  0.9994947       -5.177165
0.38                   0.9995092       -5.233954
0.384                   0.999524       -5.290848
0.388                  0.9995394       -5.347848
0.392                   0.999555       -5.404957
0.396                  0.9995709       -5.462178
0.4                    0.9995871       -5.519512
0.404                  0.9996036        -5.57696
0.408                  0.9996203       -5.634525
0.412                  0.9996371       -5.692209
0.416                  0.9996541       -5.750014
0.42                   0.9996711        -5.80794
0.424                  0.9996883       -5.865989
0.428                  0.9997053       -5.924163
0.432                  0.9997224       -5.982463
0.436                  0.9997395        -6.04089
0.44                   0.9997562       -6.099445
0.444                  0.9997728        -6.15813
0.448                  0.9997893       -6.216944
0.452                  0.9998055       -6.275889
0.456                  0.9998212       -6.334965
0.46                   0.9998367       -6.394171
0.464                  0.9998517       -6.453509
0.468                  0.9998662       -6.512979
0.472                  0.9998803       -6.572581
0.476                  0.9998938       -6.632313
0.48                   0.9999067       -6.692178
0.484                  0.9999187       -6.752174
0.488                  0.9999303       -6.812299
0.492                   0.999941       -6.872555
0.496                  0.9999511       -6.932938
0.5                    0.9999603       -6.993451
0.504                  0.9999686       -7.054091
0.508                   0.999976       -7.114856
0.512                  0.9999825       -7.175746
0.516                  0.9999881       -7.236757
0.52                   0.9999926       -7.297894
0.524                   0.999996       -7.359148
0.528                  0.9999984       -7.420523
0.532                  0.9999997       -7.482013
0.536                          1       -7.543618
0.54                    0.999999       -7.605337
0.544                  0.9999968       -7.667167
0.548                  0.9999936       -7.729105
0.552                  0.9999892        -7.79115
0.556                  0.9999834         -7.8533
0.56                   0.9999765       -7.915552
0.564                  0.9999683       -7.977906
0.568                   0.999959       -8.040355
0.572                  0.9999484       -8.102901
0.576                  0.9999364       -8.165541
0.58                   0.9999233       -8.228272
0.584                  0.9999091       -8.291089
0.588                  0.9998936       -8.353994
0.592                  0.9998769       -8.416982
0.596                  0.9998589       -8.480053
0.6                    0.9998398       -8.543201
0.604                  0.9998197       -8.606427
0.608                  0.9997982       -8.669729
0.612                  0.9997758       -8.733103
0.616                  0.9997523       -8.796547
0.62                   0.9997277       -8.860061
0.624                  0.9997023       -8.923641
0.628                  0.9996759       -8.987287
0.632                  0.9996485       -9.050998
0.636                  0.9996203       -9.114768
0.64                   0.9995912       -9.178602
0.644                  0.9995615       -9.242493
0.648                   0.999531       -9.306445
0.652                  0.9994998       -9.370452
0.656                   0.999468       -9.434518
0.66                   0.9994357       -9.498639
0.664                  0.9994028       -9.562816
0.668                  0.9993697       -9.627048
0.672                   0.999336       -9.691337
0.676                  0.9993021       -9.755681
0.68                    0.999268       -9.820079
0.684                  0.9992338       -9.884535
0.688                  0.9991995       -9.949049
0.692                  0.9991651       -10.01362
0.696                  0.9991308       -10.07825
0.7                    0.9990966       -10.14294
0.704                  0.9990626        -10.2077
0.708                  0.9990289       -10.27251
0.712                  0.9989956        -10.3374
0.716                  0.9989625       -10.40235
0.72                   0.9989301       -10.46737
0.724                   0.998898       -10.53247
0.728                  0.9988668       -10.59765
0.732                  0.9988361        -10.6629
0.736                  0.9988061       -10.72825
0.74                   0.9987771       -10.79367
0.744                  0.9987489       -10.85919
0.748                  0.9987216       -10.92481
0.752                  0.9986953       -10.99052
0.756                  0.9986701       -11.05634
0.76                   0.9986459       -11.12227
0.764                  0.9986229       -11.18831
0.768                  0.9986011       -11.25447
0.772                  0.9985805       -11.32076
0.776                  0.9985612       -11.38717
0.78                   0.9985434       -11.45372
0.784                  0.9985269       -11.52042
0.788                  0.9985116       -11.58726
0.792                  0.9984978       -11.65426
0.796                  0.9984855       -11.72141
0.8                    0.9984747       -11.78874
0.804                  0.9984652       -11.85623
0.808                  0.9984572       -11.92391
0.812                  0.9984508       -11.99177
0.816                  0.9984458       -12.05982
0.82                   0.9984423       -12.12807
0.824                  0.9984403       -12.19653
0.828                  0.9984397       -12.26521
0.832                  0.9984407        -12.3341
0.836                  0.9984429       -12.40322
0.84                   0.9984466       -12.47258
0.844                  0.9984517       -12.54217
0.848                   0.998458       -12.61201
0.852                  0.9984657       -12.68211
0.856                  0.9984746       -12.75246
0.86                   0.9984846       -12.82309
0.864                  0.9984958       -12.89399
0.868                   0.998508       -12.96516
0.872                  0.9985212       -13.03663
0.876                  0.9985353       -13.10838
0.88                   0.9985503       -13.18044
0.884                  0.9985661        -13.2528
0.888                  0.9985825       -13.32546
0.892                  0.9985996       -13.39845
0.896                  0.9986171       -13.47175
0.9                    0.9986352       -13.54537
0.904                  0.9986535       -13.61933
0.908                   0.998672       -13.69362
0.912                  0.9986907       -13.76825
0.916                  0.9987094       -13.84322
0.92                   0.9987279       -13.91854
0.924                  0.9987462       -13.99421
0.928                  0.9987644       -14.07023
0.932                  0.9987821        -14.1466
0.936                  0.9987992       -14.22333
0.94                   0.9988157       -14.30043
0.944                  0.9988313       -14.37788
0.948                  0.9988461        -14.4557
0.952                  0.9988599       -14.53388
0.956                  0.9988727       -14.61243
0.96                    0.998884       -14.69135
0.964                  0.9988941       -14.77063
0.968                  0.9989027       -14.85029
0.972                  0.9989097       -14.93031
0.976                   0.998915        -15.0107
0.98                   0.9989185       -15.09145
0.984                  0.9989201       -15.17256
0.988                  0.9989198       -15.25404
0.992                  0.9989173       -15.33589
0.996                  0.9989125       -15.41809
1                      0.9989054       -15.50065
1.004                  0.9988959       -15.58356
1.008                   0.998884       -15.66683
1.012                  0.9988695       -15.75044
1.016                  0.9988522       -15.83441
1.02                   0.9988322       -15.91871
1.024                  0.9988094       -16.00336
1.028                  0.9987838       -16.08831
1.032                  0.9987551       -16.17366
1.036                  0.9987236       -16.25928
1.04                    0.998689       -16.34526
1.044                  0.9986513       -16.43151
1.048                  0.9986105       -16.51809
1.052                  0.9985664       -16.60503
1.056                  0.9985195       -16.69221
1.06                    0.998469       -16.77971
1.064                  0.9984155        -16.8675
1.068                  0.9983588        -16.9556
1.072                  0.9982988       -17.04399
1.076                  0.9982356       -17.13264
1.08                   0.9981693       -17.22155
1.084                  0.9980999       -17.31078
1.088                  0.9980274        -17.4002
1.092                  0.9979517       -17.48992
1.096                   0.997873       -17.57994
1.1                    0.9977912       -17.67018
1.104                  0.9977066       -17.76064
1.108                  0.9976192       -17.85137
1.112                  0.9975289       -17.94238
1.116                  0.9974359       -18.03357
1.12                   0.9973403       -18.12504
1.124                  0.9972421       -18.21673
1.128                  0.9971415       -18.30864
1.132                  0.9970384       -18.40079
1.136                  0.9969333       -18.49315
1.14                   0.9968261       -18.58575
1.144                  0.9967167       -18.67857
1.148                  0.9966054       -18.77162
1.152                  0.9964924       -18.86489
1.156                  0.9963778       -18.95839
1.16                   0.9962616       -19.05211
1.164                  0.9961441       -19.14605
1.168                  0.9960254       -19.24023
1.172                  0.9959055       -19.33463
1.176                  0.9957848       -19.42927
1.18                   0.9956632       -19.52414
1.184                  0.9955409       -19.61925
1.188                  0.9954181        -19.7146
1.192                   0.995295       -19.81021
1.196                  0.9951717       -19.90607
1.2                    0.9950481       -20.00219
1.204                  0.9949248       -20.09857
1.208                  0.9948017       -20.19523
1.212                  0.9946789       -20.29216
1.216                  0.9945566       -20.38939
1.22                    0.994435       -20.48691
1.224                   0.994314       -20.58474
1.228                   0.994194       -20.68289
1.232                   0.994075       -20.78136
1.236                  0.9939571       -20.88017
1.24                   0.9938405       -20.97933
1.244                  0.9937253       -21.07884
1.248                  0.9936115       -21.17873
1.252                  0.9934993       -21.27901
1.256                  0.9933888       -21.37968
1.26                   0.9932798       -21.48077
1.264                  0.9931729       -21.58229
1.268                  0.9930677       -21.68424
1.272                  0.9929644       -21.78665
1.276                  0.9928631       -21.88953
1.28                   0.9927639        -21.9929
1.284                  0.9926667       -22.09677
1.288                  0.9925716       -22.20116
1.292                  0.9924785       -22.30609
1.296                  0.9923876       -22.41157
1.3                    0.9922987       -22.51761
1.304                  0.9922118       -22.62425
1.308                  0.9921268       -22.73149
1.312                   0.992044       -22.83935
1.316                   0.991963       -22.94785
1.32                   0.9918838       -23.05701
1.324                  0.9918066       -23.16683
1.328                  0.9917308       -23.27735
1.332                  0.9916567       -23.38859
1.336                  0.9915841       -23.50055
1.34                   0.9915128       -23.61326
1.344                  0.9914427       -23.72672
1.348                  0.9913739       -23.84097
1.352                  0.9913057       -23.95602
1.356                  0.9912384       -24.07188
1.36                   0.9911717       -24.18857
1.364                  0.9911053       -24.30611
1.368                  0.9910392       -24.42451
1.372                  0.9909729       -24.54379
1.376                  0.9909065       -24.66396
1.38                   0.9908397       -24.78505
1.384                   0.990772       -24.90706
1.388                  0.9907035       -25.03001
1.392                  0.9906339        -25.1539
1.396                  0.9905626       -25.27877
1.4                    0.9904898       -25.40462
1.404                  0.9904149       -25.53145
1.408                  0.9903378       -25.65929
1.412                  0.9902581       -25.78814
1.416                  0.9901757       -25.91802
1.42                   0.9900901       -26.04893
1.424                   0.990001       -26.18088
1.428                  0.9899082       -26.31389
1.432                  0.9898114       -26.44796
1.436                  0.9897102       -26.58309
1.44                   0.9896044       -26.71931
1.444                  0.9894938        -26.8566
1.448                  0.9893777       -26.99499
1.452                  0.9892562       -27.13446
1.456                  0.9891289       -27.27503
1.46                   0.9889952       -27.41671
1.464                  0.9888553       -27.55949
1.468                  0.9887085       -27.70338
1.472                  0.9885546       -27.84838
1.476                  0.9883935       -27.99448
1.48                   0.9882248        -28.1417
1.484                   0.988048       -28.29004
1.488                  0.9878631       -28.43949
1.492                  0.9876697       -28.59004
1.496                  0.9874677       -28.74171
1.5                    0.9872568       -28.89449
1.504                  0.9870367       -29.04838
1.508                  0.9868071       -29.20337
1.512                  0.9865678       -29.35947
1.516                  0.9863189       -29.51666
1.52                   0.9860598       -29.67494
1.524                  0.9857904       -29.83433
1.528                  0.9855106        -29.9948
1.532                  0.9852203       -30.15636
1.536                  0.9849192         -30.319
1.54                   0.9846073       -30.48271
1.544                  0.9842844       -30.64749
1.548                  0.9839502       -30.81335
1.552                   0.983605       -30.98027
1.556                  0.9832485       -31.14824
1.56                   0.9828805       -31.31727
1.564                  0.9825011       -31.48736
1.568                  0.9821102       -31.65849
1.572                  0.9817077       -31.83067
1.576                  0.9812939       -32.00389
1.58                   0.9808683       -32.17815
1.584                  0.9804313       -32.35344
1.588                  0.9799827       -32.52977
1.592                  0.9795229       -32.70712
1.596                  0.9790514       -32.88551
1.6                    0.9785685       -33.06494
1.604                  0.9780744       -33.24539
1.608                  0.9775691       -33.42688
1.612                  0.9770526       -33.60942
1.616                  0.9765252       -33.79298
1.62                   0.9759869       -33.97759
1.624                  0.9754378       -34.16325
1.628                   0.974878       -34.34996
1.632                  0.9743078       -34.53774
1.636                  0.9737272       -34.72658
1.64                   0.9731363       -34.91651
1.644                  0.9725357       -35.10751
1.648                  0.9719252       -35.29961
1.652                  0.9713048       -35.49284
1.656                  0.9706751       -35.68719
1.66                   0.9700361       -35.88268
1.664                  0.9693879       -36.07933
1.668                  0.9687309       -36.27715
1.672                  0.9680649       -36.47618
1.676                  0.9673906       -36.67642
1.68                   0.9667079        -36.8779
1.684                  0.9660169       -37.08065
1.688                  0.9653178       -37.28468
1.692                  0.9646108       -37.49004
1.696                  0.9638964       -37.69674
1.7                    0.9631741       -37.90482
1.704                  0.9624445       -38.11431
1.708                  0.9617077       -38.32524
1.712                  0.9609636       -38.53765
1.716                  0.9602125       -38.75157
1.72                   0.9594545       -38.96705
1.724                  0.9586895       -39.18412
1.728                  0.9579178       -39.40283
1.732                   0.957139       -39.62321
1.736                  0.9563536       -39.84532
1.74                   0.9555615        -40.0692
1.744                  0.9547626        -40.2949
1.748                  0.9539567       -40.52246
1.752                   0.953144       -40.75195
1.756                  0.9523243        -40.9834
1.76                   0.9514973       -41.21688
1.764                  0.9506633       -41.45243
1.768                  0.9498217       -41.69013
1.772                  0.9489725       -41.93001
1.776                  0.9481154       -42.17214
1.78                   0.9472502       -42.41659
1.784                  0.9463763       -42.66342
1.788                  0.9454939       -42.91267
1.792                  0.9446024       -43.16443
1.796                  0.9437013       -43.41873
1.8                    0.9427902       -43.67568
1.804                  0.9418688       -43.93531
1.808                  0.9409363       -44.19771
1.812                  0.9399926       -44.46293
1.816                  0.9390367       -44.73105
1.82                   0.9380682       -45.00213
1.824                  0.9370866       -45.27623
1.828                  0.9360909       -45.55343
1.832                  0.9350807        -45.8338
1.836                   0.934055       -46.11742
1.84                   0.9330131       -46.40435
1.844                  0.9319542       -46.69465
1.848                  0.9308774        -46.9884
1.852                  0.9297818       -47.28568
1.856                  0.9286666       -47.58653
1.86                   0.9275308       -47.89105
1.864                  0.9263732        -48.1993
1.868                  0.9251931       -48.51134
1.872                  0.9239891       -48.82725
1.876                  0.9227606       -49.14709
1.88                   0.9215058       -49.47093
1.884                  0.9202239       -49.79885
1.888                  0.9189139        -50.1309
1.892                  0.9175743       -50.46715
1.896                  0.9162039       -50.80768
1.9                    0.9148017       -51.15254
1.904                   0.913366       -51.50179
1.908                  0.9118958       -51.85551
1.912                  0.9103897       -52.21375
1.916                  0.9088461       -52.57658
1.92                   0.9072641       -52.94404
1.924                   0.905642       -53.31623
1.928                  0.9039784       -53.69317
1.932                   0.902272       -54.07494
1.936                  0.9005212        -54.4616
1.94                   0.8987248       -54.85319
1.944                  0.8968812       -55.24976
1.948                  0.8949889        -55.6514
1.952                  0.8930466       -56.05814
1.956                  0.8910525       -56.47003
1.96                   0.8890057       -56.88712
1.964                  0.8869043       -57.30948
1.968                  0.8847467       -57.73715
1.972                  0.8825319       -58.17016
1.976                  0.8802581        -58.6086
1.98                    0.877924       -59.05248
1.984                  0.8755281       -59.50187
1.988                   0.873069       -59.95681
1.992                  0.8705454       -60.41735
1.996                  0.8679556       -60.88352
2                      0.8652983       -61.35539
2.004                  0.8625724       -61.83299
2.008                  0.8597764       -62.31636
2.012                  0.8569088       -62.80557
2.016                  0.8539686       -63.30063
2.02                   0.8509542        -63.8016
2.024                  0.8478646       -64.30854
2.028                  0.8446985       -64.82147
2.032                  0.8414547       -65.34044
2.036                  0.8381321       -65.86551
2.04                   0.8347296       -66.39671
2.044                  0.8312461        -66.9341
2.048                  0.8276805       -67.47772
2.052                  0.8240318        -68.0276
2.056                   0.820299       -68.58382
2.06                   0.8164814       -69.14642
2.064                  0.8125779       -69.71545
2.068                   0.808588       -70.29093
2.072                  0.8045104       -70.87298
2.076                  0.8003447        -71.4616
2.08                   0.7960902       -72.05687
2.084                  0.7917463       -72.65885
2.088                  0.7873124       -73.26761
2.092                   0.782788        -73.8832
2.096                  0.7781726       -74.50568
2.1                    0.7734659       -75.13515
2.104                  0.7686675       -75.77167
2.108                   0.763777       -76.41529
2.112                  0.7587943       -77.06614
2.116                  0.7537194       -77.72428
2.12                    0.748552       -78.38979
2.124                  0.7432922       -79.06277
2.128                    0.73794       -79.74334
2.132                  0.7324955       -80.43157
2.136                   0.726959       -81.12759
2.14                   0.7213304       -81.83152
2.144                  0.7156106       -82.54347
2.148                  0.7097996       -83.26357
2.152                  0.7038981       -83.99195
2.156                  0.6979064       -84.72878
2.16                   0.6918254       -85.47419
2.164                  0.6856557       -86.22833
2.168                  0.6793982        -86.9914
2.172                  0.6730536       -87.76357
2.176                  0.6666231       -88.54502
2.18                   0.6601075       -89.33596
2.184                  0.6535081        -90.1366
2.188                  0.6468261       -90.94716
2.192                  0.6400628       -91.76789
2.196                  0.6332196       -92.59906
2.2                     0.626298        -93.4409
2.204                  0.6192997       -94.29375
2.208                  0.6122263       -95.15786
2.212                  0.6050795       -96.03359
2.216                  0.5978614       -96.92127
2.22                    0.590574       -97.82127
2.224                  0.5832192       -98.73396
2.228                  0.5757995       -99.65976
2.232                  0.5683171       -100.5991
2.236                  0.5607745       -101.5525
2.24                   0.5531743       -102.5203
2.244                  0.5455193       -103.5032
2.248                  0.5378121       -104.5017
2.252                  0.5300561       -105.5164
2.256                   0.522254       -106.5478
2.26                   0.5144094       -107.5967
2.264                  0.5065257       -108.6638
2.268                  0.4986063       -109.7499
2.272                  0.4906552       -110.8557
2.276                  0.4826764       -111.9821
2.28                    0.474674       -113.1301
2.284                  0.4666521       -114.3005
2.288                  0.4586158       -115.4945
2.292                  0.4505694       -116.7131
2.296                  0.4425183       -117.9574
2.3                    0.4344676       -119.2289
2.304                   0.426423       -120.5286
2.308                  0.4183903       -121.8581
2.312                  0.4103757       -123.2189
2.316                  0.4023856       -124.6124
2.32                    0.394427       -126.0404
2.324                   0.386507       -127.5046
2.328                  0.3786334       -129.0068
2.332                   0.370814       -130.5491
2.336                  0.3630575       -132.1333
2.34                   0.3553729       -133.7618
2.344                  0.3477695       -135.4366
2.348                  0.3402574       -137.1601
2.352                  0.3328473       -138.9346