! TOUCHSTONE file generated by CST MICROWAVE STUDIO
! Date and time: Thu May 12 14:30:01 2022
! Project name: AppElm_antenne_dipole_FR4.cst
! Parameters = {L=38.8; e=0.035; f=2.45e+09; h=1.6; i=0.76; l1=4; lambda=122.449; ls=30; wl=1.7; ws=80}
! Header version: 2018
! Port assignment regex: !\s*Touchstone port\s*([0-9]+)\s*=\s*(CST MWS port|CST DS port)\s*([0-9]+|Zmin|Zmax)\s*\(\"(.*)\"\)(\s*mode\s*([0-9]+))?.*
! Touchstone port assignment:
! Touchstone port 1 = CST MWS port 1 ("")
# GHz S MA R 50
0                      0.9980757              -0
0.004                  0.9980772     -0.05072516
0.008                  0.9980817      -0.1014606
0.012                  0.9980893      -0.1522166
0.016                  0.9980997      -0.2030032
0.02                   0.9981131      -0.2538307
0.024                  0.9981293       -0.304709
0.028                  0.9981485      -0.3556479
0.032                  0.9981704       -0.406657
0.036                  0.9981951      -0.4577458
0.04                   0.9982223      -0.5089237
0.044                  0.9982521      -0.5601993
0.048                  0.9982845      -0.6115815
0.052                  0.9983191      -0.6630786
0.056                   0.998356      -0.7146986
0.06                   0.9983949      -0.7664493
0.064                   0.998436      -0.8183377
0.068                  0.9984789       -0.870371
0.072                  0.9985237      -0.9225555
0.076                  0.9985699      -0.9748973
0.08                   0.9986177       -1.027402
0.084                  0.9986668       -1.080075
0.088                   0.998717        -1.13292
0.092                  0.9987683       -1.185942
0.096                  0.9988204       -1.239144
0.1                    0.9988732        -1.29253
0.104                  0.9989265       -1.346102
0.108                  0.9989802       -1.399862
0.112                   0.999034       -1.453812
0.116                   0.999088       -1.507952
0.12                   0.9991417       -1.562283
0.124                   0.999195       -1.616806
0.128                  0.9992479       -1.671519
0.132                  0.9993001       -1.726421
0.136                  0.9993516        -1.78151
0.14                   0.9994021       -1.836785
0.144                  0.9994516       -1.892243
0.148                  0.9994995       -1.947881
0.152                  0.9995461       -2.003694
0.156                  0.9995912       -2.059679
0.16                   0.9996344       -2.115831
0.164                  0.9996758       -2.172145
0.168                  0.9997152       -2.228616
0.172                  0.9997524       -2.285237
0.176                  0.9997876       -2.342003
0.18                   0.9998203       -2.398907
0.184                  0.9998505       -2.455941
0.188                  0.9998781       -2.513099
0.192                  0.9999031       -2.570373
0.196                  0.9999253       -2.627755
0.2                    0.9999449       -2.685237
0.204                  0.9999616        -2.74281
0.208                  0.9999751       -2.800466
0.212                  0.9999858       -2.858197
0.216                  0.9999936       -2.915993
0.22                   0.9999982       -2.973846
0.224                  0.9999999       -3.031746
0.228                  0.9999986       -3.089685
0.232                   0.999994       -3.147654
0.236                  0.9999864       -3.205643
0.24                   0.9999759       -3.263642
0.244                  0.9999623       -3.321645
0.248                  0.9999457       -3.379641
0.252                  0.9999261       -3.437622
0.256                  0.9999038       -3.495578
0.26                   0.9998786       -3.553503
0.264                  0.9998507       -3.611388
0.268                  0.9998201       -3.669224
0.272                   0.999787       -3.727004
0.276                  0.9997513       -3.784722
0.28                   0.9997134       -3.842368
0.284                  0.9996733       -3.899938
0.288                   0.999631       -3.957424
0.292                  0.9995867       -4.014821
0.296                  0.9995404       -4.072124
0.3                    0.9994926       -4.129326
0.304                  0.9994431       -4.186425
0.308                  0.9993922       -4.243413
0.312                    0.99934        -4.30029
0.316                  0.9992869       -4.357051
0.32                   0.9992324       -4.413694
0.324                  0.9991775       -4.470217
0.328                  0.9991219       -4.526617
0.332                  0.9990658       -4.582893
0.336                  0.9990094       -4.639046
0.34                   0.9989529       -4.695075
0.344                  0.9988965       -4.750982
0.348                  0.9988404       -4.806766
0.352                  0.9987846        -4.86243
0.356                  0.9987295       -4.917975
0.36                   0.9986752       -4.973406
0.364                  0.9986216       -5.028724
0.368                  0.9985692       -5.083936
0.372                  0.9985182       -5.139042
0.376                  0.9984685        -5.19405
0.38                   0.9984204       -5.248964
0.384                   0.998374       -5.303793
0.388                  0.9983294        -5.35854
0.392                   0.998287       -5.413212
0.396                  0.9982466       -5.467819
0.4                    0.9982085       -5.522367
0.404                  0.9981728       -5.576865
0.408                  0.9981395       -5.631321
0.412                   0.998109       -5.685744
0.416                   0.998081       -5.740143
0.42                    0.998056       -5.794529
0.424                  0.9980337       -5.848911
0.428                  0.9980144       -5.903299
0.432                  0.9979982       -5.957704
0.436                   0.997985       -6.012137
0.44                   0.9979748       -6.066607
0.444                  0.9979678       -6.121127
0.448                   0.997964       -6.175708
0.452                  0.9979634       -6.230358
0.456                  0.9979659       -6.285092
0.46                   0.9979717        -6.33992
0.464                  0.9979806       -6.394853
0.468                  0.9979926       -6.449901
0.472                  0.9980076       -6.505077
0.476                  0.9980259       -6.560391
0.48                    0.998047       -6.615854
0.484                  0.9980711       -6.671477
0.488                   0.998098        -6.72727
0.492                  0.9981278       -6.783242
0.496                  0.9981602       -6.839405
0.5                     0.998195       -6.895769
0.504                  0.9982325       -6.952341
0.508                  0.9982723       -7.009131
0.512                  0.9983144       -7.066148
0.516                  0.9983584         -7.1234
0.52                   0.9984044       -7.180894
0.524                  0.9984522        -7.23864
0.528                  0.9985017       -7.296641
0.532                  0.9985526       -7.354907
0.536                  0.9986049       -7.413441
0.54                   0.9986582       -7.472251
0.544                  0.9987126       -7.531338
0.548                  0.9987678       -7.590711
0.552                  0.9988236       -7.650371
0.556                  0.9988799       -7.710321
0.56                   0.9989363       -7.770564
0.564                  0.9989929       -7.831102
0.568                  0.9990492       -7.891938
0.572                  0.9991054       -7.953069
0.576                  0.9991609         -8.0145
0.58                   0.9992157       -8.076228
0.584                  0.9992698       -8.138252
0.588                  0.9993227       -8.200571
0.592                  0.9993743       -8.263184
0.596                  0.9994246       -8.326086
0.6                    0.9994734       -8.389274
0.604                  0.9995201       -8.452747
0.608                  0.9995651       -8.516499
0.612                  0.9996079       -8.580523
0.616                  0.9996486       -8.644816
0.62                   0.9996866       -8.709373
0.624                  0.9997223       -8.774185
0.628                  0.9997552        -8.83925
0.632                  0.9997852       -8.904556
0.636                  0.9998124       -8.970097
0.64                   0.9998366       -9.035867
0.644                  0.9998574       -9.101856
0.648                  0.9998751       -9.168056
0.652                  0.9998895       -9.234457
0.656                  0.9999004       -9.301051
0.66                   0.9999079       -9.367829
0.664                  0.9999117       -9.434782
0.668                   0.999912       -9.501898
0.672                  0.9999088       -9.569168
0.676                  0.9999018       -9.636584
0.68                   0.9998913       -9.704133
0.684                  0.9998771       -9.771807
0.688                  0.9998591       -9.839598
0.692                  0.9998376       -9.907493
0.696                  0.9998124        -9.97548
0.7                    0.9997837       -10.04355
0.704                  0.9997515        -10.1117
0.708                  0.9997157       -10.17992
0.712                  0.9996766       -10.24819
0.716                  0.9996342       -10.31651
0.72                   0.9995888       -10.38487
0.724                    0.99954       -10.45326
0.728                  0.9994883       -10.52167
0.732                  0.9994336       -10.59009
0.736                  0.9993764       -10.65852
0.74                   0.9993165       -10.72695
0.744                   0.999254       -10.79538
0.748                  0.9991893       -10.86379
0.752                  0.9991224       -10.93218
0.756                  0.9990537       -11.00055
0.76                    0.998983        -11.0689
0.764                  0.9989107       -11.13721
0.768                   0.998837       -11.20549
0.772                  0.9987619       -11.27373
0.776                  0.9986859       -11.34193
0.78                   0.9986089       -11.41008
0.784                  0.9985313        -11.4782
0.788                  0.9984532       -11.54628
0.792                  0.9983749       -11.61431
0.796                  0.9982966        -11.6823
0.8                    0.9982183       -11.75025
0.804                  0.9981403       -11.81817
0.808                  0.9980631       -11.88606
0.812                  0.9979865       -11.95391
0.816                  0.9979108       -12.02175
0.82                   0.9978363       -12.08956
0.824                  0.9977633       -12.15736
0.828                  0.9976917       -12.22515
0.832                  0.9976218       -12.29294
0.836                  0.9975539       -12.36075
0.84                   0.9974881       -12.42856
0.844                  0.9974243       -12.49641
0.848                  0.9973631       -12.56429
0.852                  0.9973045       -12.63221
0.856                  0.9972484       -12.70019
0.86                   0.9971954       -12.76824
0.864                  0.9971452       -12.83636
0.868                  0.9970981       -12.90458
0.872                  0.9970543        -12.9729
0.876                  0.9970137       -13.04134
0.88                   0.9969765       -13.10991
0.884                  0.9969428       -13.17862
0.888                  0.9969125       -13.24749
0.892                  0.9968859       -13.31652
0.896                  0.9968628       -13.38575
0.9                    0.9968434       -13.45517
0.904                  0.9968276       -13.52481
0.908                  0.9968156       -13.59468
0.912                  0.9968071       -13.66479
0.916                  0.9968023       -13.73516
0.92                    0.996801       -13.80581
0.924                  0.9968034       -13.87675
0.928                  0.9968092       -13.94799
0.932                  0.9968186       -14.01954
0.936                  0.9968312       -14.09143
0.94                   0.9968469       -14.16367
0.944                  0.9968659       -14.23626
0.948                   0.996888       -14.30923
0.952                  0.9969128       -14.38259
0.956                  0.9969405       -14.45634
0.96                   0.9969706       -14.53052
0.964                  0.9970034       -14.60511
0.968                  0.9970383       -14.68014
0.972                  0.9970753       -14.75562
0.976                  0.9971142       -14.83156
0.98                   0.9971548       -14.90796
0.984                  0.9971969       -14.98485
0.988                  0.9972402       -15.06222
0.992                  0.9972846       -15.14008
0.996                  0.9973299       -15.21845
1                      0.9973758       -15.29733
1.004                   0.997422       -15.37672
1.008                  0.9974683       -15.45663
1.012                  0.9975145       -15.53707
1.016                  0.9975603       -15.61804
1.02                   0.9976055       -15.69954
1.024                  0.9976499       -15.78158
1.028                  0.9976932       -15.86417
1.032                   0.997735       -15.94728
1.036                  0.9977752       -16.03094
1.04                   0.9978137       -16.11511
1.044                  0.9978499       -16.19986
1.048                  0.9978839       -16.28513
1.052                  0.9979153       -16.37094
1.056                  0.9979437       -16.45728
1.06                   0.9979693       -16.54413
1.064                  0.9979916        -16.6315
1.068                  0.9980101       -16.71942
1.072                  0.9980252       -16.80783
1.076                  0.9980364       -16.89673
1.08                   0.9980434       -16.98615
1.084                  0.9980462       -17.07606
1.088                  0.9980446       -17.16644
1.092                  0.9980383       -17.25734
1.096                  0.9980273       -17.34864
1.1                    0.9980114       -17.44044
1.104                  0.9979904       -17.53265
1.108                  0.9979643       -17.62532
1.112                   0.997933       -17.71843
1.116                  0.9978964       -17.81192
1.12                   0.9978543       -17.90582
1.124                  0.9978068       -18.00013
1.128                  0.9977536        -18.0948
1.132                   0.997695       -18.18984
1.136                  0.9976308       -18.28525
1.14                    0.997561         -18.381
1.144                  0.9974855       -18.47708
1.148                  0.9974045       -18.57349
1.152                  0.9973181       -18.67021
1.156                   0.997226       -18.76723
1.16                   0.9971286       -18.86454
1.164                  0.9970258       -18.96212
1.168                  0.9969178       -19.05998
1.172                  0.9968047       -19.15809
1.176                  0.9966864       -19.25645
1.18                   0.9965633       -19.35505
1.184                  0.9964354       -19.45389
1.188                  0.9963029       -19.55294
1.192                   0.996166       -19.65221
1.196                  0.9960249       -19.75168
1.2                    0.9958797       -19.85135
1.204                  0.9957305       -19.95123
1.208                  0.9955778       -20.05129
1.212                  0.9954216       -20.15153
1.216                  0.9952622       -20.25196
1.22                   0.9950998       -20.35256
1.224                  0.9949347       -20.45335
1.228                  0.9947671       -20.55431
1.232                  0.9945974       -20.65545
1.236                  0.9944256       -20.75676
1.24                    0.994252       -20.85825
1.244                  0.9940771       -20.95993
1.248                   0.993901       -21.06179
1.252                   0.993724       -21.16383
1.256                  0.9935464       -21.26608
1.26                   0.9933683       -21.36853
1.264                  0.9931902       -21.47118
1.268                  0.9930122       -21.57405
1.272                  0.9928346       -21.67715
1.276                  0.9926577        -21.7805
1.28                   0.9924819       -21.88409
1.284                  0.9923071       -21.98794
1.288                  0.9921338       -22.09206
1.292                  0.9919621       -22.19649
1.296                  0.9917923       -22.30121
1.3                    0.9916246       -22.40625
1.304                  0.9914592       -22.51164
1.308                  0.9912963       -22.61739
1.312                  0.9911361        -22.7235
1.316                  0.9909786       -22.83002
1.32                   0.9908242       -22.93695
1.324                  0.9906729       -23.04432
1.328                  0.9905249       -23.15215
1.332                  0.9903802       -23.26047
1.336                  0.9902391       -23.36928
1.34                   0.9901014       -23.47863
1.344                  0.9899674       -23.58853
1.348                   0.989837         -23.699
1.352                  0.9897103       -23.81009
1.356                  0.9895873       -23.92179
1.36                    0.989468       -24.03416
1.364                  0.9893524        -24.1472
1.368                  0.9892404       -24.26094
1.372                  0.9891318       -24.37542
1.376                  0.9890266       -24.49066
1.38                    0.988925       -24.60668
1.384                  0.9888264       -24.72351
1.388                   0.988731       -24.84118
1.392                  0.9886385       -24.95972
1.396                  0.9885487       -25.07914
1.4                    0.9884615       -25.19948
1.404                  0.9883765       -25.32075
1.408                  0.9882936       -25.44299
1.412                  0.9882127       -25.56622
1.416                  0.9881333       -25.69047
1.42                   0.9880551       -25.81575
1.424                   0.987978       -25.94208
1.428                  0.9879015        -26.0695
1.432                  0.9878253       -26.19802
1.436                   0.987749       -26.32767
1.44                   0.9876723       -26.45846
1.444                  0.9875951       -26.59041
1.448                  0.9875166       -26.72355
1.452                  0.9874366       -26.85788
1.456                  0.9873547       -26.99342
1.46                   0.9872704        -27.1302
1.464                  0.9871834       -27.26823
1.468                  0.9870932       -27.40751
1.472                  0.9869993       -27.54806
1.476                  0.9869015        -27.6899
1.48                   0.9867991       -27.83303
1.484                  0.9866917       -27.97747
1.488                  0.9865789       -28.12322
1.492                  0.9864604       -28.27029
1.496                  0.9863355       -28.41869
1.5                    0.9862039       -28.56841
1.504                  0.9860652       -28.71948
1.508                  0.9859187       -28.87189
1.512                  0.9857642       -29.02565
1.516                  0.9856013       -29.18074
1.52                   0.9854295       -29.33718
1.524                  0.9852484       -29.49497
1.528                  0.9850575       -29.65411
1.532                  0.9848565       -29.81458
1.536                  0.9846451        -29.9764
1.54                   0.9844226       -30.13955
1.544                  0.9841892       -30.30403
1.548                  0.9839441       -30.46984
1.552                  0.9836869       -30.63698
1.556                  0.9834178       -30.80542
1.56                   0.9831359       -30.97517
1.564                  0.9828413       -31.14623
1.568                  0.9825337       -31.31858
1.572                  0.9822127       -31.49221
1.576                  0.9818782       -31.66712
1.58                   0.9815299       -31.84331
1.584                  0.9811676       -32.02074
1.588                  0.9807913       -32.19943
1.592                  0.9804007       -32.37935
1.596                  0.9799956       -32.56052
1.6                    0.9795761        -32.7429
1.604                  0.9791419       -32.92651
1.608                   0.978693       -33.11131
1.612                  0.9782295       -33.29731
1.616                  0.9777513       -33.48451
1.62                   0.9772581       -33.67289
1.624                  0.9767502       -33.86245
1.628                  0.9762277       -34.05317
1.632                  0.9756904       -34.24507
1.636                  0.9751386       -34.43812
1.64                   0.9745722       -34.63233
1.644                  0.9739914        -34.8277
1.648                  0.9733963       -35.02423
1.652                  0.9727872        -35.2219
1.656                  0.9721639       -35.42074
1.66                   0.9715269       -35.62072
1.664                  0.9708762       -35.82186
1.668                  0.9702121       -36.02417
1.672                  0.9695348       -36.22765
1.676                  0.9688444        -36.4323
1.68                   0.9681412       -36.63815
1.684                  0.9674256       -36.84519
1.688                  0.9666976       -37.05343
1.692                  0.9659576       -37.26291
1.696                  0.9652058       -37.47363
1.7                    0.9644423        -37.6856
1.704                  0.9636678       -37.89885
1.708                  0.9628819        -38.1134
1.712                  0.9620855       -38.32928
1.716                  0.9612785       -38.54651
1.72                   0.9604614       -38.76511
1.724                   0.959634       -38.98511
1.728                   0.958797       -39.20657
1.732                  0.9579504       -39.42949
1.736                  0.9570943       -39.65392
1.74                   0.9562292        -39.8799
1.744                  0.9553552       -40.10747
1.748                  0.9544722       -40.33667
1.752                  0.9535807       -40.56754
1.756                  0.9526805       -40.80014
1.76                   0.9517721        -41.0345
1.764                  0.9508553       -41.27069
1.768                    0.94993       -41.50876
1.772                  0.9489967       -41.74875
1.776                  0.9480551       -41.99073
1.78                   0.9471052       -42.23475
1.784                  0.9461469       -42.48089
1.788                  0.9451803       -42.72918
1.792                  0.9442052       -42.97971
1.796                  0.9432213       -43.23254
1.8                    0.9422284       -43.48773
1.804                  0.9412265       -43.74536
1.808                  0.9402153       -44.00549
1.812                  0.9391942        -44.2682
1.816                  0.9381632       -44.53355
1.82                   0.9371217       -44.80164
1.824                  0.9360692       -45.07252
1.828                  0.9350055       -45.34627
1.832                  0.9339297       -45.62299
1.836                  0.9328416       -45.90273
1.84                   0.9317404       -46.18558
1.844                  0.9306253       -46.47163
1.848                  0.9294959       -46.76095
1.852                  0.9283514       -47.05362
1.856                  0.9271907       -47.34973
1.86                   0.9260135       -47.64935
1.864                  0.9248182       -47.95258
1.868                  0.9236046       -48.25947
1.872                  0.9223714       -48.57014
1.876                  0.9211175       -48.88464
1.88                    0.919842       -49.20308
1.884                  0.9185438       -49.52552
1.888                  0.9172217       -49.85204
1.892                  0.9158745       -50.18274
1.896                  0.9145011       -50.51769
1.9                    0.9131002       -50.85697
1.904                  0.9116703       -51.20065
1.908                  0.9102104       -51.54882
1.912                  0.9087191       -51.90155
1.916                  0.9071948       -52.25893
1.92                   0.9056361       -52.62101
1.924                  0.9040417        -52.9879
1.928                    0.90241       -53.35966
1.932                  0.9007399       -53.73633
1.936                  0.8990292       -54.11803
1.94                   0.8972768       -54.50479
1.944                   0.895481       -54.89672
1.948                  0.8936403       -55.29386
1.952                   0.891753       -55.69627
1.956                  0.8898175       -56.10404
1.96                   0.8878322       -56.51723
1.964                  0.8857956       -56.93589
1.968                  0.8837058       -57.36008
1.972                  0.8815614       -57.78989
1.976                  0.8793606       -58.22535
1.98                   0.8771019       -58.66652
1.984                  0.8747834       -59.11349
1.988                  0.8724038       -59.56628
1.992                  0.8699613       -60.02497
1.996                  0.8674542       -60.48958
2                      0.8648811       -60.96021
2.004                  0.8622403       -61.43691
2.008                  0.8595301       -61.91969
2.012                  0.8567494       -62.40862
2.016                  0.8538962       -62.90377
2.02                   0.8509692       -63.40517
2.024                  0.8479668        -63.9129
2.028                  0.8448879       -64.42697
2.032                  0.8417307       -64.94746
2.036                   0.838494        -65.4744
2.04                   0.8351763       -66.00786
2.044                  0.8317767       -66.54785
2.048                  0.8282935       -67.09449
2.052                  0.8247255       -67.64776
2.056                  0.8210719       -68.20777
2.06                   0.8173312       -68.77452
2.064                  0.8135025       -69.34809
2.068                  0.8095847       -69.92855
2.072                  0.8055769       -70.51595
2.076                  0.8014782       -71.11031
2.08                   0.7972876       -71.71172
2.084                  0.7930044       -72.32024
2.088                  0.7886278       -72.93594
2.092                  0.7841572       -73.55885
2.096                   0.779592       -74.18909
2.1                    0.7749315       -74.82668
2.104                  0.7701753       -75.47174
2.108                  0.7653231        -76.1243
2.112                  0.7603743       -76.78448
2.116                   0.755329       -77.45235
2.12                   0.7501867         -78.128
2.124                  0.7449474       -78.81151
2.128                   0.739611         -79.503
2.132                  0.7341776       -80.20256
2.136                  0.7286474       -80.91032
2.14                   0.7230203       -81.62636
2.144                  0.7172969       -82.35082
2.148                  0.7114774       -83.08385
2.152                  0.7055622       -83.82555
2.156                  0.6995522        -84.5761
2.16                   0.6934476       -85.33563
2.164                  0.6872493        -86.1043
2.168                   0.680958       -86.88228
2.172                  0.6745748       -87.66978
2.176                  0.6681005       -88.46697
2.18                   0.6615364       -89.27407
2.184                  0.6548836       -90.09127
2.188                  0.6481432       -90.91883
2.192                  0.6413169       -91.75699
2.196                   0.634406         -92.606
2.2                    0.6274122       -93.46613
2.204                  0.6203372       -94.33771
2.208                  0.6131827       -95.22102
2.212                  0.6059508        -96.1164
2.216                  0.5986434       -97.02421
2.22                   0.5912629       -97.94481
2.224                  0.5838113       -98.87864
2.228                  0.5762912       -99.82607
2.232                   0.568705       -100.7876
2.236                  0.5610555       -101.7637
2.24                   0.5533456       -102.7548
2.244                   0.545578       -103.7616
2.248                  0.5377558       -104.7846
2.252                  0.5298825       -105.8244
2.256                  0.5219613       -106.8817
2.26                   0.5139958       -107.9571
2.264                  0.5059899       -109.0515
2.268                  0.4979473       -110.1656
2.272                  0.4898723       -111.3003
2.276                   0.481769       -112.4564
2.28                   0.4736421        -113.635
2.284                  0.4654962        -114.837
2.288                  0.4573364       -116.0635
2.292                  0.4491679       -117.3158
2.296                  0.4409961        -118.595
2.3                    0.4328268       -119.9024
2.304                   0.424666       -121.2394
2.308                    0.41652       -122.6075
2.312                  0.4083958       -124.0083
2.316                     0.4003       -125.4434
2.32                   0.3922404       -126.9146
2.324                  0.3842246       -128.4237
2.328                   0.376261       -129.9726
2.332                  0.3683581       -131.5634
2.336                  0.3605254       -133.1982
2.34                   0.3527724       -134.8793
2.344                  0.3451094       -136.6089
2.348                  0.3375472       -138.3894
2.352                  0.3300973       -140.2234