! TOUCHSTONE file generated by CST MICROWAVE STUDIO
! Date and time: Thu May 12 14:30:00 2022
! Project name: AppElm_antenne_dipole_FR4.cst
! Parameters = {L=38.8; e=0.035; f=2.45e+09; h=1.6; i=0.72; l1=4; lambda=122.449; ls=30; wl=1.7; ws=80}
! Header version: 2018
! Port assignment regex: !\s*Touchstone port\s*([0-9]+)\s*=\s*(CST MWS port|CST DS port)\s*([0-9]+|Zmin|Zmax)\s*\(\"(.*)\"\)(\s*mode\s*([0-9]+))?.*
! Touchstone port assignment:
! Touchstone port 1 = CST MWS port 1 ("")
# GHz S MA R 50
0                       0.997905              -0
0.004                  0.9979066      -0.0498858
0.008                  0.9979116     -0.09978273
0.012                  0.9979197      -0.1497019
0.016                  0.9979311      -0.1996542
0.02                   0.9979455      -0.2496508
0.024                  0.9979634      -0.2997023
0.028                  0.9979842      -0.3498193
0.032                   0.998008      -0.4000125
0.036                  0.9980349      -0.4502918
0.04                   0.9980644      -0.5006674
0.044                  0.9980969      -0.5511489
0.048                  0.9981321      -0.6017456
0.052                  0.9981697      -0.6524667
0.056                  0.9982099      -0.7033207
0.06                   0.9982524       -0.754316
0.064                   0.998297      -0.8054603
0.068                  0.9983437      -0.8567613
0.072                  0.9983922      -0.9082259
0.076                  0.9984427      -0.9598604
0.08                   0.9984948       -1.011671
0.084                  0.9985481       -1.063663
0.088                  0.9986028       -1.115842
0.092                  0.9986586       -1.168211
0.096                  0.9987153       -1.220776
0.1                    0.9987727       -1.273539
0.104                  0.9988307       -1.326502
0.108                  0.9988891       -1.379669
0.112                  0.9989478        -1.43304
0.116                  0.9990064       -1.486617
0.12                   0.9990648       -1.540401
0.124                   0.999123        -1.59439
0.128                  0.9991806       -1.648585
0.132                  0.9992373       -1.702983
0.136                  0.9992935       -1.757584
0.14                   0.9993483       -1.812384
0.144                  0.9994021       -1.867382
0.148                  0.9994543       -1.922572
0.152                  0.9995051       -1.977952
0.156                  0.9995542       -2.033515
0.16                   0.9996012       -2.089259
0.164                  0.9996463       -2.145176
0.168                  0.9996892       -2.201262
0.172                  0.9997299       -2.257509
0.176                  0.9997681        -2.31391
0.18                   0.9998037       -2.370459
0.184                  0.9998366       -2.427147
0.188                  0.9998667       -2.483968
0.192                  0.9998942       -2.540911
0.196                  0.9999183       -2.597969
0.2                    0.9999396       -2.655133
0.204                  0.9999578       -2.712394
0.208                  0.9999729       -2.769742
0.212                  0.9999844       -2.827168
0.216                  0.9999929       -2.884662
0.22                   0.9999982       -2.942215
0.224                          1       -2.999816
0.228                  0.9999985       -3.057457
0.232                  0.9999937       -3.115125
0.236                  0.9999856       -3.172813
0.24                   0.9999741        -3.23051
0.244                  0.9999595       -3.288205
0.248                  0.9999415       -3.345891
0.252                  0.9999204       -3.403556
0.256                  0.9998962       -3.461192
0.26                   0.9998688       -3.518789
0.264                  0.9998386       -3.576338
0.268                  0.9998055       -3.633832
0.272                  0.9997696        -3.69126
0.276                   0.999731       -3.748617
0.28                   0.9996898       -3.805892
0.284                  0.9996462       -3.863079
0.288                  0.9996003       -3.920172
0.292                  0.9995522       -3.977164
0.296                  0.9995022       -4.034048
0.3                    0.9994502       -4.090819
0.304                  0.9993965       -4.147472
0.308                  0.9993412       -4.204003
0.312                  0.9992846       -4.260407
0.316                  0.9992267        -4.31668
0.32                   0.9991679       -4.372819
0.324                  0.9991082       -4.428824
0.328                  0.9990477        -4.48469
0.332                  0.9989868       -4.540417
0.336                  0.9989255       -4.596005
0.34                   0.9988642       -4.651454
0.344                   0.998803       -4.706762
0.348                  0.9987419       -4.761933
0.352                  0.9986813       -4.816968
0.356                  0.9986215       -4.871868
0.36                   0.9985624       -4.926638
0.364                  0.9985044        -4.98128
0.368                  0.9984475       -5.035799
0.372                  0.9983919         -5.0902
0.376                  0.9983379       -5.144488
0.38                   0.9982856       -5.198668
0.384                  0.9982353       -5.252747
0.388                  0.9981869       -5.306732
0.392                  0.9981407        -5.36063
0.396                  0.9980969       -5.414451
0.4                    0.9980554       -5.468201
0.404                  0.9980167       -5.521889
0.408                  0.9979806       -5.575525
0.412                  0.9979473       -5.629119
0.416                  0.9979171       -5.682681
0.42                   0.9978898       -5.736221
0.424                  0.9978657       -5.789749
0.428                  0.9978446       -5.843277
0.432                   0.997827       -5.896816
0.436                  0.9978127       -5.950379
0.44                   0.9978016       -6.003975
0.444                  0.9977941       -6.057616
0.448                    0.99779       -6.111315
0.452                  0.9977893       -6.165086
0.456                  0.9977921       -6.218937
0.46                   0.9977984       -6.272883
0.464                  0.9978081       -6.326935
0.468                  0.9978212       -6.381106
0.472                  0.9978376       -6.435406
0.476                  0.9978573       -6.489849
0.48                   0.9978805       -6.544445
0.484                  0.9979068       -6.599206
0.488                  0.9979361       -6.654143
0.492                  0.9979684       -6.709269
0.496                  0.9980036       -6.764593
0.5                    0.9980418       -6.820125
0.504                  0.9980824       -6.875876
0.508                  0.9981258       -6.931855
0.512                  0.9981715        -6.98807
0.516                  0.9982195       -7.044534
0.52                   0.9982698       -7.101251
0.524                  0.9983218       -7.158232
0.528                  0.9983758       -7.215481
0.532                  0.9984312       -7.273009
0.536                  0.9984882        -7.33082
0.54                   0.9985465       -7.388918
0.544                  0.9986057       -7.447312
0.548                  0.9986659       -7.506005
0.552                  0.9987268       -7.564999
0.556                   0.998788         -7.6243
0.56                   0.9988497       -7.683909
0.564                  0.9989114        -7.74383
0.568                   0.998973       -7.804063
0.572                  0.9990342       -7.864609
0.576                  0.9990949       -7.925468
0.58                   0.9991549       -7.986641
0.584                   0.999214       -8.048123
0.588                   0.999272       -8.109917
0.592                  0.9993285       -8.172019
0.596                  0.9993835       -8.234427
0.6                    0.9994368       -8.297134
0.604                  0.9994881       -8.360138
0.608                  0.9995374       -8.423435
0.612                  0.9995845       -8.487019
0.616                  0.9996291       -8.550884
0.62                   0.9996712       -8.615022
0.624                  0.9997104        -8.67943
0.628                  0.9997468       -8.744099
0.632                  0.9997802       -8.809019
0.636                  0.9998103       -8.874185
0.64                    0.999837       -8.939587
0.644                  0.9998605       -9.005214
0.648                  0.9998804       -9.071061
0.652                  0.9998968       -9.137115
0.656                  0.9999095       -9.203367
0.66                   0.9999183       -9.269806
0.664                  0.9999234       -9.336423
0.668                  0.9999245       -9.403207
0.672                  0.9999218       -9.470146
0.676                  0.9999152       -9.537233
0.68                   0.9999045        -9.60445
0.684                    0.99989       -9.671794
0.688                  0.9998716       -9.739247
0.692                  0.9998491       -9.806806
0.696                  0.9998228       -9.874453
0.7                    0.9997926       -9.942181
0.704                  0.9997587       -10.00998
0.708                   0.999721       -10.07783
0.712                  0.9996796       -10.14574
0.716                  0.9996347       -10.21368
0.72                   0.9995862       -10.28165
0.724                  0.9995346       -10.34964
0.728                  0.9994795       -10.41765
0.732                  0.9994215       -10.48565
0.736                  0.9993605       -10.55366
0.74                   0.9992967       -10.62164
0.744                  0.9992302       -10.68961
0.748                  0.9991612       -10.75755
0.752                  0.9990897       -10.82545
0.756                  0.9990162       -10.89332
0.76                   0.9989408       -10.96114
0.764                  0.9988636       -11.02892
0.768                   0.998785       -11.09664
0.772                  0.9987048       -11.16431
0.776                  0.9986236       -11.23192
0.78                   0.9985414       -11.29947
0.784                  0.9984586       -11.36696
0.788                  0.9983752       -11.43439
0.792                  0.9982916       -11.50176
0.796                  0.9982079       -11.56907
0.8                    0.9981244       -11.63632
0.804                  0.9980412       -11.70352
0.808                  0.9979587       -11.77067
0.812                  0.9978769       -11.83777
0.816                  0.9977964       -11.90482
0.82                    0.997717       -11.97184
0.824                  0.9976391       -12.03883
0.828                  0.9975629        -12.1058
0.832                  0.9974886       -12.17275
0.836                  0.9974163       -12.23969
0.84                   0.9973463       -12.30663
0.844                  0.9972787       -12.37358
0.848                  0.9972139       -12.44055
0.852                  0.9971517       -12.50756
0.856                  0.9970926       -12.57461
0.86                   0.9970364       -12.64171
0.864                  0.9969836       -12.70888
0.868                  0.9969341       -12.77613
0.872                   0.996888       -12.84347
0.876                  0.9968457       -12.91092
0.88                   0.9968069       -12.97849
0.884                  0.9967719       -13.04619
0.888                  0.9967408       -13.11405
0.892                  0.9967135       -13.18208
0.896                  0.9966902       -13.25028
0.9                    0.9966708       -13.31868
0.904                  0.9966554        -13.3873
0.908                   0.996644       -13.45614
0.912                  0.9966367       -13.52523
0.916                  0.9966332       -13.59458
0.92                   0.9966336        -13.6642
0.924                   0.996638       -13.73411
0.928                  0.9966461       -13.80434
0.932                  0.9966581       -13.87488
0.936                  0.9966737       -13.94576
0.94                   0.9966928         -14.017
0.944                  0.9967153       -14.08861
0.948                  0.9967411        -14.1606
0.952                  0.9967702       -14.23298
0.956                  0.9968023       -14.30578
0.96                   0.9968371         -14.379
0.964                  0.9968746       -14.45266
0.968                  0.9969147       -14.52676
0.972                  0.9969571       -14.60133
0.976                  0.9970015       -14.67637
0.98                   0.9970479        -14.7519
0.984                  0.9970958       -14.82791
0.988                  0.9971453       -14.90443
0.992                  0.9971959       -14.98147
0.996                  0.9972475       -15.05902
1                      0.9972999       -15.13709
1.004                  0.9973525        -15.2157
1.008                  0.9974054       -15.29485
1.012                  0.9974583       -15.37455
1.016                  0.9975108       -15.45479
1.02                   0.9975628       -15.53558
1.024                  0.9976137       -15.61693
1.028                  0.9976636       -15.69883
1.032                  0.9977122       -15.78128
1.036                  0.9977591       -15.86433
1.04                   0.9978039       -15.94788
1.044                  0.9978466       -16.03203
1.048                  0.9978867       -16.11669
1.052                  0.9979242       -16.20194
1.056                  0.9979587       -16.28772
1.06                   0.9979901       -16.37406
1.064                  0.9980178       -16.46091
1.068                   0.998042       -16.54831
1.072                  0.9980621       -16.63623
1.076                  0.9980783       -16.72466
1.08                   0.9980901       -16.81362
1.084                  0.9980974       -16.90307
1.088                  0.9980998       -16.99301
1.092                  0.9980974       -17.08347
1.096                    0.99809       -17.17434
1.1                    0.9980774       -17.26572
1.104                  0.9980595       -17.35755
1.108                  0.9980361       -17.44981
1.112                   0.998007       -17.54248
1.116                  0.9979724       -17.63559
1.12                   0.9979319       -17.72908
1.124                  0.9978857       -17.82304
1.128                  0.9978334        -17.9173
1.132                  0.9977754       -18.01196
1.136                  0.9977115       -18.10697
1.14                   0.9976416       -18.20232
1.144                  0.9975657         -18.298
1.148                  0.9974839         -18.394
1.152                  0.9973962       -18.49031
1.156                  0.9973028       -18.58691
1.16                   0.9972034       -18.68378
1.164                  0.9970986       -18.78093
1.168                   0.996988       -18.87834
1.172                  0.9968721       -18.97599
1.176                  0.9967509       -19.07387
1.18                   0.9966244       -19.17198
1.184                  0.9964929        -19.2703
1.188                  0.9963565       -19.36883
1.192                  0.9962154       -19.46756
1.196                  0.9960699       -19.56648
1.2                      0.99592       -19.66558
1.204                  0.9957661       -19.76485
1.208                  0.9956084       -19.86429
1.212                   0.995447       -19.96391
1.216                  0.9952823       -20.06367
1.22                   0.9951145        -20.1636
1.224                   0.994944       -20.26368
1.228                  0.9947708       -20.36391
1.232                  0.9945953        -20.4643
1.236                  0.9944178       -20.56484
1.24                   0.9942385       -20.66554
1.244                  0.9940578       -20.76639
1.248                  0.9938759        -20.8674
1.252                  0.9936932       -20.96858
1.256                    0.99351       -21.06993
1.26                   0.9933264       -21.17145
1.264                  0.9931429       -21.27316
1.268                  0.9929596       -21.37507
1.272                  0.9927769       -21.47718
1.276                   0.992595       -21.57951
1.28                   0.9924143       -21.68206
1.284                  0.9922351       -21.78485
1.288                  0.9920575        -21.8879
1.292                  0.9918817       -21.99122
1.296                  0.9917082       -22.09482
1.3                     0.991537       -22.19872
1.304                  0.9913684       -22.30295
1.308                  0.9912028       -22.40752
1.312                    0.99104       -22.51244
1.316                  0.9908804       -22.61775
1.32                   0.9907243       -22.72346
1.324                  0.9905717       -22.82959
1.328                  0.9904228       -22.93617
1.332                  0.9902775       -23.04322
1.336                  0.9901364       -23.15077
1.34                    0.989999       -23.25884
1.344                  0.9898657       -23.36745
1.348                  0.9897366       -23.47664
1.352                  0.9896116       -23.58642
1.356                  0.9894908       -23.69683
1.36                    0.989374       -23.80789
1.364                  0.9892614       -23.91963
1.368                  0.9891529       -24.03207
1.372                  0.9890483       -24.14525
1.376                  0.9889477        -24.2592
1.38                   0.9888508       -24.37393
1.384                  0.9887576       -24.48948
1.388                  0.9886681       -24.60588
1.392                  0.9885818       -24.72315
1.396                  0.9884986       -24.84132
1.4                    0.9884184       -24.96042
1.404                   0.988341       -25.08046
1.408                  0.9882659       -25.20149
1.412                  0.9881932       -25.32353
1.416                  0.9881223       -25.44659
1.42                   0.9880531       -25.57071
1.424                  0.9879852       -25.69591
1.428                  0.9879182       -25.82221
1.432                  0.9878518       -25.94963
1.436                  0.9877858       -26.07819
1.44                   0.9877196       -26.20792
1.444                  0.9876528       -26.33885
1.448                   0.987585       -26.47097
1.452                  0.9875161       -26.60432
1.456                  0.9874451       -26.73891
1.46                   0.9873722       -26.87476
1.464                  0.9872965       -27.01188
1.468                  0.9872177       -27.15028
1.472                  0.9871353       -27.28999
1.476                  0.9870489         -27.431
1.48                    0.986958       -27.57333
1.484                  0.9868621         -27.717
1.488                  0.9867608       -27.86201
1.492                  0.9866535       -28.00836
1.496                  0.9865399       -28.15607
1.5                    0.9864194       -28.30513
1.504                  0.9862917       -28.45556
1.508                  0.9861559       -28.60736
1.512                  0.9860121       -28.76052
1.516                  0.9858595       -28.91505
1.52                   0.9856977       -29.07096
1.524                  0.9855264       -29.22822
1.528                  0.9853452       -29.38685
1.532                  0.9851534       -29.54685
1.536                  0.9849508       -29.70821
1.54                   0.9847371       -29.87092
1.544                  0.9845118       -30.03498
1.548                  0.9842744       -30.20038
1.552                  0.9840247       -30.36713
1.556                  0.9837625       -30.53519
1.56                   0.9834872       -30.70458
1.564                  0.9831989       -30.87528
1.568                  0.9828969       -31.04728
1.572                  0.9825812       -31.22057
1.576                  0.9822514       -31.39516
1.58                   0.9819075         -31.571
1.584                  0.9815491       -31.74812
1.588                   0.981176       -31.92648
1.592                  0.9807883       -32.10609
1.596                  0.9803857       -32.28693
1.6                    0.9799682       -32.46898
1.604                  0.9795355       -32.65225
1.608                  0.9790876       -32.83672
1.612                  0.9786246       -33.02238
1.616                  0.9781465       -33.20922
1.62                    0.977653       -33.39724
1.624                  0.9771444       -33.58642
1.628                  0.9766208       -33.77676
1.632                   0.976082       -33.96825
1.636                  0.9755282       -34.16088
1.64                   0.9749595       -34.35465
1.644                  0.9743762       -34.54956
1.648                  0.9737781       -34.74561
1.652                  0.9731657       -34.94279
1.656                   0.972539        -35.1411
1.66                   0.9718982       -35.34053
1.664                  0.9712436       -35.54111
1.668                  0.9705753       -35.74282
1.672                  0.9698937       -35.94569
1.676                  0.9691988       -36.14969
1.68                    0.968491       -36.35486
1.684                  0.9677706        -36.5612
1.688                  0.9670379       -36.76872
1.692                  0.9662931       -36.97743
1.696                  0.9655365       -37.18736
1.7                    0.9647684       -37.39851
1.704                  0.9639892       -37.61092
1.708                  0.9631989       -37.82461
1.712                  0.9623982       -38.03957
1.716                   0.961587       -38.25587
1.72                   0.9607657       -38.47352
1.724                  0.9599349       -38.69254
1.728                  0.9590943       -38.91299
1.732                  0.9582445       -39.13487
1.736                  0.9573859       -39.35824
1.74                   0.9565183       -39.58314
1.744                  0.9556422        -39.8096
1.748                  0.9547577       -40.03768
1.752                  0.9538651        -40.2674
1.756                  0.9529644       -40.49884
1.76                   0.9520558       -40.73203
1.764                  0.9511395       -40.96702
1.768                  0.9502153       -41.20388
1.772                  0.9492837       -41.44266
1.776                  0.9483442       -41.68342
1.78                   0.9473973       -41.92621
1.784                  0.9464426       -42.17111
1.788                  0.9454802       -42.41817
1.792                    0.94451       -42.66747
1.796                  0.9435316       -42.91907
1.8                    0.9425453       -43.17304
1.804                  0.9415503       -43.42946
1.808                  0.9405467        -43.6884
1.812                  0.9395342       -43.94992
1.816                  0.9385124       -44.21411
1.82                   0.9374809       -44.48104
1.824                  0.9364392       -44.75081
1.828                  0.9353867       -45.02348
1.832                   0.934323       -45.29913
1.836                  0.9332477       -45.57785
1.84                   0.9321599       -45.85971
1.844                  0.9310591       -46.14481
1.848                  0.9299445       -46.43322
1.852                  0.9288154       -46.72504
1.856                  0.9276706       -47.02034
1.86                     0.92651        -47.3192
1.864                  0.9253321       -47.62172
1.868                  0.9241362       -47.92798
1.872                  0.9229211       -48.23806
1.876                   0.921686       -48.55205
1.88                   0.9204296       -48.87004
1.884                  0.9191509       -49.19211
1.888                  0.9178485       -49.51834
1.892                  0.9165216       -49.84881
1.896                  0.9151686       -50.18362
1.9                    0.9137882       -50.52284
1.904                  0.9123791       -50.86655
1.908                  0.9109401       -51.21484
1.912                  0.9094697       -51.56777
1.916                  0.9079664       -51.92545
1.92                   0.9064288       -52.28793
1.924                  0.9048552        -52.6553
1.928                  0.9032443       -53.02764
1.932                  0.9015944       -53.40501
1.936                   0.899904        -53.7875
1.94                   0.8981713       -54.17518
1.944                  0.8963951        -54.5681
1.948                  0.8945733       -54.96635
1.952                  0.8927044          -55.37
1.956                   0.890787        -55.7791
1.96                   0.8888189       -56.19375
1.964                  0.8867989       -56.61397
1.968                  0.8847248       -57.03986
1.972                  0.8825954       -57.47146
1.976                  0.8804087       -57.90884
1.98                    0.878163       -58.35206
1.984                  0.8758567       -58.80117
1.988                  0.8734882       -59.25624
1.992                  0.8710556       -59.71733
1.996                  0.8685573       -60.18449
2                      0.8659917       -60.65776
2.004                  0.8633572       -61.13721
2.008                  0.8606519       -61.62289
2.012                  0.8578746       -62.11485
2.016                  0.8550234       -62.61315
2.02                   0.8520969       -63.11784
2.024                  0.8490935       -63.62896
2.028                  0.8460118       -64.14655
2.032                  0.8428502        -64.6707
2.036                  0.8396074       -65.20143
2.04                   0.8362821        -65.7388
2.044                  0.8328727       -66.28287
2.048                  0.8293781       -66.83366
2.052                   0.825797       -67.39125
2.056                  0.8221281       -67.95569
2.06                   0.8183704       -68.52702
2.064                  0.8145226       -69.10532
2.068                  0.8105839       -69.69062
2.072                  0.8065531       -70.28297
2.076                  0.8024292       -70.88246
2.08                   0.7982116       -71.48911
2.084                  0.7938992       -72.10304
2.088                  0.7894914       -72.72424
2.092                  0.7849875       -73.35285
2.096                  0.7803868       -73.98888
2.1                    0.7756887       -74.63245
2.104                   0.770893       -75.28361
2.108                  0.7659991       -75.94242
2.112                  0.7610066       -76.60901
2.116                  0.7559152       -77.28344
2.12                    0.750725        -77.9658
2.124                  0.7454356       -78.65619
2.128                   0.740047       -79.35473
2.132                  0.7345595       -80.06149
2.136                   0.728973       -80.77663
2.14                   0.7232877       -81.50023
2.144                  0.7175041       -82.23243
2.148                  0.7116226       -82.97337
2.152                  0.7056435       -83.72318
2.156                  0.6995675       -84.48203
2.16                   0.6933953       -85.25007
2.164                  0.6871275       -86.02746
2.168                   0.680765       -86.81439
2.172                   0.674309       -87.61105
2.176                  0.6677603       -88.41763
2.18                   0.6611201       -89.23435
2.184                  0.6543897       -90.06145
2.188                  0.6475705       -90.89917
2.192                  0.6406639       -91.74774
2.196                  0.6336714       -92.60746
2.2                    0.6265949       -93.47863
2.204                   0.619436       -94.36152
2.208                  0.6121967       -95.25648
2.212                   0.604879       -96.16388
2.216                  0.5974852       -97.08405
2.22                   0.5900172        -98.0174
2.224                  0.5824778        -98.9644
2.228                  0.5748692        -99.9254
2.232                  0.5671945        -100.901
2.236                   0.559456       -101.8915
2.24                   0.5516569       -102.8977
2.244                  0.5438003         -103.92
2.248                  0.5358895       -104.9591
2.252                  0.5279277       -106.0156
2.256                  0.5199187       -107.0902
2.26                   0.5118662       -108.1837
2.264                   0.503774       -109.2968
2.268                  0.4956463       -110.4303
2.272                  0.4874875       -111.5853
2.276                  0.4793021       -112.7626
2.28                   0.4710948       -113.9632
2.284                  0.4628706       -115.1883
2.288                  0.4546348       -116.4389
2.292                  0.4463928       -117.7163
2.296                  0.4381505       -119.0218
2.3                     0.429914       -120.3568
2.304                  0.4216895       -121.7228
2.308                  0.4134839       -123.1212
2.312                  0.4053043       -124.5538
2.316                   0.397158       -126.0224
2.32                   0.3890531       -127.5286
2.324                  0.3809978       -129.0746
2.328                  0.3730008       -130.6623
2.332                  0.3650714       -132.2938
2.336                  0.3572195       -133.9715
2.34                   0.3494554       -135.6975
2.344                  0.3417901       -137.4745
2.348                  0.3342348       -139.3047
2.352                  0.3268019       -141.1907