! TOUCHSTONE file generated by CST MICROWAVE STUDIO
! Date and time: Thu May 12 14:30:07 2022
! Project name: AppElm_antenne_dipole_FR4.cst
! Parameters = {L=38.8; e=0.035; f=2.45e+09; h=1.6; i=1; l1=4; lambda=122.449; ls=30; wl=1.7; ws=80}
! Header version: 2018
! Port assignment regex: !\s*Touchstone port\s*([0-9]+)\s*=\s*(CST MWS port|CST DS port)\s*([0-9]+|Zmin|Zmax)\s*\(\"(.*)\"\)(\s*mode\s*([0-9]+))?.*
! Touchstone port assignment:
! Touchstone port 1 = CST MWS port 1 ("")
# GHz S MA R 50
0                      0.9999637              -0
0.004                  0.9999621     -0.06084519
0.008                  0.9999569      -0.1216814
0.012                  0.9999485      -0.1824998
0.016                  0.9999368      -0.2432913
0.02                    0.999922      -0.3040473
0.024                  0.9999038      -0.3647589
0.028                  0.9998824      -0.4254176
0.032                  0.9998578      -0.4860149
0.036                  0.9998302      -0.5465425
0.04                   0.9997995      -0.6069922
0.044                  0.9997659      -0.6673562
0.048                  0.9997295      -0.7276267
0.052                  0.9996902      -0.7877964
0.056                  0.9996484      -0.8478579
0.06                   0.9996039      -0.9078045
0.064                  0.9995569      -0.9676297
0.068                  0.9995078       -1.027327
0.072                  0.9994564        -1.08689
0.076                  0.9994028       -1.146315
0.08                   0.9993474       -1.205595
0.084                  0.9992901       -1.264725
0.088                   0.999231       -1.323702
0.092                  0.9991707       -1.382521
0.096                  0.9991088       -1.441179
0.1                    0.9990458       -1.499673
0.104                  0.9989816       -1.557999
0.108                  0.9989166       -1.616157
0.112                  0.9988509       -1.674143
0.116                  0.9987846       -1.731958
0.12                   0.9987179       -1.789599
0.124                   0.998651       -1.847066
0.128                  0.9985841       -1.904361
0.132                  0.9985173       -1.961483
0.136                  0.9984507       -2.018433
0.14                   0.9983846       -2.075214
0.144                  0.9983191       -2.131827
0.148                  0.9982543       -2.188275
0.152                  0.9981906        -2.24456
0.156                  0.9981279       -2.300688
0.16                   0.9980665        -2.35666
0.164                  0.9980065       -2.412483
0.168                  0.9979481        -2.46816
0.172                  0.9978914       -2.523697
0.176                  0.9978366       -2.579101
0.18                   0.9977837       -2.634376
0.184                  0.9977331       -2.689531
0.188                  0.9976847       -2.744571
0.192                  0.9976387       -2.799504
0.196                  0.9975952       -2.854338
0.2                    0.9975544       -2.909081
0.204                  0.9975162        -2.96374
0.208                  0.9974808       -3.018327
0.212                  0.9974486       -3.072847
0.216                  0.9974192       -3.127312
0.22                   0.9973929       -3.181731
0.224                  0.9973698       -3.236112
0.228                  0.9973499       -3.290467
0.232                  0.9973333       -3.344806
0.236                    0.99732       -3.399137
0.24                     0.99731       -3.453473
0.244                  0.9973035       -3.507822
0.248                  0.9973003       -3.562197
0.252                  0.9973004       -3.616607
0.256                  0.9973041       -3.671063
0.26                   0.9973112       -3.725575
0.264                  0.9973216       -3.780155
0.268                  0.9973354       -3.834813
0.272                  0.9973526       -3.889559
0.276                   0.997373       -3.944403
0.28                   0.9973966       -3.999357
0.284                  0.9974236       -4.054429
0.288                  0.9974536       -4.109631
0.292                  0.9974867       -4.164971
0.296                  0.9975228        -4.22046
0.3                    0.9975617       -4.276106
0.304                  0.9976034       -4.331919
0.308                  0.9976477       -4.387907
0.312                  0.9976946        -4.44408
0.316                  0.9977441       -4.500445
0.32                   0.9977959       -4.557009
0.324                  0.9978499       -4.613781
0.328                   0.997906       -4.670768
0.332                  0.9979639       -4.727976
0.336                  0.9980237       -4.785411
0.34                    0.998085        -4.84308
0.344                  0.9981478       -4.900988
0.348                   0.998212       -4.959139
0.352                  0.9982773       -5.017539
0.356                  0.9983437       -5.076191
0.36                   0.9984107         -5.1351
0.364                  0.9984786       -5.194268
0.368                  0.9985467       -5.253698
0.372                  0.9986153       -5.313391
0.376                   0.998684        -5.37335
0.38                   0.9987526       -5.433576
0.384                   0.998821        -5.49407
0.388                   0.998889       -5.554831
0.392                  0.9989564        -5.61586
0.396                  0.9990229       -5.677155
0.4                    0.9990887       -5.738714
0.404                  0.9991533       -5.800538
0.408                  0.9992166       -5.862622
0.412                  0.9992785       -5.924964
0.416                  0.9993388       -5.987561
0.42                   0.9993973        -6.05041
0.424                  0.9994538       -6.113505
0.428                  0.9995084       -6.176842
0.432                  0.9995607       -6.240417
0.436                  0.9996107       -6.304224
0.44                   0.9996582       -6.368258
0.444                  0.9997029       -6.432511
0.448                  0.9997451       -6.496976
0.452                  0.9997843       -6.561649
0.456                  0.9998205       -6.626521
0.46                   0.9998537       -6.691584
0.464                  0.9998837       -6.756832
0.468                  0.9999104       -6.822255
0.472                  0.9999337       -6.887846
0.476                  0.9999537       -6.953596
0.48                   0.9999701       -7.019496
0.484                  0.9999829       -7.085537
0.488                  0.9999922       -7.151711
0.492                  0.9999979       -7.218007
0.496                          1       -7.284416
0.5                    0.9999983        -7.35093
0.504                   0.999993       -7.417538
0.508                  0.9999839       -7.484233
0.512                  0.9999712       -7.551003
0.516                  0.9999546       -7.617839
0.52                   0.9999346       -7.684733
0.524                  0.9999108       -7.751675
0.528                  0.9998836       -7.818654
0.532                  0.9998526       -7.885665
0.536                  0.9998182       -7.952695
0.54                   0.9997807       -8.019735
0.544                  0.9997396       -8.086782
0.548                  0.9996953        -8.15382
0.552                  0.9996479       -8.220846
0.556                  0.9995973       -8.287851
0.56                   0.9995438       -8.354827
0.564                  0.9994876       -8.421768
0.568                  0.9994285       -8.488665
0.572                   0.999367       -8.555513
0.576                  0.9993029       -8.622306
0.58                   0.9992366       -8.689038
0.584                  0.9991682       -8.755703
0.588                  0.9990976       -8.822295
0.592                  0.9990254       -8.888814
0.596                  0.9989513       -8.955252
0.6                     0.998876       -9.021604
0.604                  0.9987991       -9.087872
0.608                  0.9987212        -9.15405
0.612                  0.9986422       -9.220137
0.616                  0.9985625       -9.286132
0.62                   0.9984821       -9.352033
0.624                  0.9984014       -9.417839
0.628                  0.9983203       -9.483553
0.632                  0.9982393       -9.549172
0.636                  0.9981585       -9.614701
0.64                   0.9980778       -9.680139
0.644                  0.9979977       -9.745488
0.648                  0.9979183       -9.810754
0.652                  0.9978399       -9.875937
0.656                  0.9977624       -9.941044
0.66                   0.9976863       -10.00608
0.664                  0.9976115       -10.07104
0.668                  0.9975385       -10.13595
0.672                  0.9974672       -10.20079
0.676                  0.9973979       -10.26559
0.68                   0.9973306       -10.33035
0.684                  0.9972657       -10.39507
0.688                  0.9972031       -10.45976
0.692                  0.9971431       -10.52444
0.696                  0.9970859        -10.5891
0.7                    0.9970314       -10.65377
0.704                  0.9969799       -10.71845
0.708                  0.9969315       -10.78315
0.712                  0.9968864       -10.84788
0.716                  0.9968445       -10.91266
0.72                   0.9968061       -10.97748
0.724                  0.9967709       -11.04238
0.728                  0.9967395       -11.10735
0.732                  0.9967118       -11.17241
0.736                  0.9966875       -11.23757
0.74                   0.9966671       -11.30284
0.744                  0.9966505       -11.36825
0.748                  0.9966376       -11.43379
0.752                  0.9966285       -11.49949
0.756                  0.9966233       -11.56535
0.76                    0.996622       -11.63139
0.764                  0.9966244       -11.69762
0.768                  0.9966305       -11.76406
0.772                  0.9966405       -11.83071
0.776                  0.9966543        -11.8976
0.78                   0.9966716       -11.96473
0.784                  0.9966926       -12.03212
0.788                  0.9967172       -12.09978
0.792                   0.996745       -12.16772
0.796                  0.9967763       -12.23596
0.8                    0.9968109        -12.3045
0.804                  0.9968485       -12.37336
0.808                  0.9968894       -12.44255
0.812                  0.9969329       -12.51209
0.816                  0.9969794       -12.58197
0.82                   0.9970283       -12.65222
0.824                  0.9970797       -12.72284
0.828                  0.9971334       -12.79384
0.832                  0.9971894       -12.86523
0.836                  0.9972471       -12.93703
0.84                   0.9973069       -13.00923
0.844                  0.9973681       -13.08185
0.848                  0.9974307       -13.15489
0.852                  0.9974945       -13.22837
0.856                  0.9975594       -13.30228
0.86                    0.997625       -13.37664
0.864                  0.9976912       -13.45144
0.868                  0.9977578       -13.52669
0.872                  0.9978245       -13.60241
0.876                  0.9978912       -13.67858
0.88                   0.9979576       -13.75522
0.884                  0.9980235       -13.83232
0.888                  0.9980885       -13.90989
0.892                  0.9981528       -13.98792
0.896                  0.9982159       -14.06643
0.9                    0.9982774        -14.1454
0.904                  0.9983374       -14.22484
0.908                  0.9983956       -14.30474
0.912                  0.9984517       -14.38512
0.916                  0.9985056       -14.46595
0.92                    0.998557       -14.54724
0.924                  0.9986058       -14.62899
0.928                  0.9986517       -14.71119
0.932                  0.9986945       -14.79383
0.936                  0.9987342       -14.87691
0.94                   0.9987702       -14.96044
0.944                  0.9988028       -15.04438
0.948                  0.9988315       -15.12876
0.952                  0.9988564       -15.21354
0.956                  0.9988771       -15.29873
0.96                   0.9988936       -15.38433
0.964                  0.9989056       -15.47032
0.968                  0.9989134       -15.55668
0.972                  0.9989163       -15.64342
0.976                  0.9989145       -15.73053
0.98                    0.998908       -15.81799
0.984                  0.9988966       -15.90579
0.988                  0.9988799       -15.99393
0.992                  0.9988585       -16.08239
0.996                  0.9988318       -16.17117
1                      0.9987998       -16.26025
1.004                  0.9987628       -16.34962
1.008                  0.9987204       -16.43927
1.012                  0.9986729        -16.5292
1.016                  0.9986201       -16.61938
1.02                   0.9985622       -16.70981
1.024                   0.998499       -16.80048
1.028                  0.9984306        -16.8914
1.032                   0.998357       -16.98249
1.036                  0.9982784       -17.07382
1.04                   0.9981948       -17.16535
1.044                  0.9981062       -17.25706
1.048                  0.9980129       -17.34891
1.052                  0.9979146       -17.44099
1.056                  0.9978118       -17.53317
1.06                   0.9977046       -17.62551
1.064                   0.997593       -17.71802
1.068                  0.9974771       -17.81064
1.072                  0.9973571       -17.90342
1.076                  0.9972333       -17.99628
1.08                   0.9971056       -18.08925
1.084                  0.9969744       -18.18234
1.088                  0.9968397       -18.27556
1.092                  0.9967018       -18.36883
1.096                  0.9965611       -18.46218
1.1                    0.9964174       -18.55567
1.104                  0.9962713       -18.64919
1.108                  0.9961228       -18.74282
1.112                   0.995972       -18.83656
1.116                  0.9958194       -18.93032
1.12                   0.9956652        -19.0242
1.124                  0.9955095       -19.11813
1.128                  0.9953526       -19.21217
1.132                  0.9951947       -19.30627
1.136                  0.9950362       -19.40046
1.14                    0.994877       -19.49474
1.144                  0.9947177       -19.58911
1.148                  0.9945585       -19.68357
1.152                  0.9943994       -19.77814
1.156                  0.9942409       -19.87282
1.16                    0.994083       -19.96761
1.164                  0.9939263       -20.06253
1.168                  0.9937706       -20.15759
1.172                  0.9936163       -20.25278
1.176                  0.9934638       -20.34813
1.18                   0.9933131       -20.44365
1.184                  0.9931644       -20.53934
1.188                  0.9930181       -20.63522
1.192                  0.9928741       -20.73131
1.196                   0.992733       -20.82761
1.2                    0.9925945       -20.92415
1.204                  0.9924592       -21.02093
1.208                   0.992327       -21.11797
1.212                  0.9921981        -21.2153
1.216                  0.9920727       -21.31292
1.22                    0.991951       -21.41085
1.224                  0.9918328       -21.50913
1.228                  0.9917186       -21.60775
1.232                  0.9916083       -21.70674
1.236                  0.9915019       -21.80613
1.24                   0.9913995       -21.90593
1.244                  0.9913013       -22.00616
1.248                  0.9912074       -22.10684
1.252                  0.9911176       -22.20799
1.256                  0.9910319       -22.30964
1.26                   0.9909504       -22.41181
1.264                  0.9908731       -22.51451
1.268                  0.9907999       -22.61777
1.272                  0.9907309       -22.72161
1.276                  0.9906658       -22.82606
1.28                   0.9906048       -22.93114
1.284                  0.9905475       -23.03686
1.288                   0.990494       -23.14325
1.292                  0.9904442       -23.25033
1.296                  0.9903978       -23.35813
1.3                    0.9903548       -23.46666
1.304                   0.990315       -23.57594
1.308                  0.9902781         -23.686
1.312                   0.990244       -23.79686
1.316                  0.9902125       -23.90854
1.32                   0.9901835       -24.02105
1.324                  0.9901566       -24.13441
1.328                  0.9901316       -24.24866
1.332                  0.9901081       -24.36379
1.336                  0.9900861       -24.47984
1.34                    0.990065       -24.59681
1.344                  0.9900448       -24.71473
1.348                  0.9900251       -24.83362
1.352                  0.9900055       -24.95347
1.356                   0.989986       -25.07432
1.36                   0.9899657       -25.19618
1.364                  0.9899447       -25.31905
1.368                  0.9899227       -25.44296
1.372                   0.989899       -25.56791
1.376                  0.9898735       -25.69391
1.38                   0.9898459       -25.82097
1.384                  0.9898155       -25.94912
1.388                  0.9897822       -26.07834
1.392                  0.9897456       -26.20866
1.396                  0.9897054       -26.34007
1.4                     0.989661       -26.47259
1.404                  0.9896121       -26.60622
1.408                  0.9895584       -26.74096
1.412                  0.9894996       -26.87681
1.416                  0.9894352       -27.01379
1.42                   0.9893648        -27.1519
1.424                  0.9892881       -27.29112
1.428                  0.9892048       -27.43147
1.432                  0.9891143       -27.57295
1.436                  0.9890166       -27.71555
1.44                   0.9889111       -27.85927
1.444                  0.9887976       -28.00411
1.448                  0.9886757       -28.15006
1.452                  0.9885451       -28.29713
1.456                  0.9884053       -28.44531
1.46                   0.9882563       -28.59459
1.464                  0.9880977       -28.74496
1.468                  0.9879292       -28.89643
1.472                  0.9877504       -29.04899
1.476                  0.9875613       -29.20261
1.48                   0.9873616       -29.35731
1.484                  0.9871509       -29.51308
1.488                  0.9869291       -29.66989
1.492                  0.9866959       -29.82775
1.496                  0.9864513       -29.98664
1.5                    0.9861949       -30.14655
1.504                  0.9859267        -30.3075
1.508                  0.9856466       -30.46943
1.512                  0.9853543       -30.63238
1.516                  0.9850497        -30.7963
1.52                   0.9847328        -30.9612
1.524                  0.9844036       -31.12708
1.528                  0.9840619       -31.29391
1.532                  0.9837076       -31.46169
1.536                  0.9833408       -31.63041
1.54                   0.9829615       -31.80005
1.544                  0.9825696       -31.97062
1.548                  0.9821652       -32.14211
1.552                  0.9817482       -32.31449
1.556                  0.9813189       -32.48778
1.56                   0.9808771       -32.66196
1.564                   0.980423       -32.83702
1.568                  0.9799568       -33.01296
1.572                  0.9794784       -33.18978
1.576                   0.978988       -33.36746
1.58                   0.9784859       -33.54601
1.584                  0.9779721       -33.72542
1.588                  0.9774469        -33.9057
1.592                  0.9769102       -34.08683
1.596                  0.9763624       -34.26883
1.6                    0.9758037       -34.45168
1.604                  0.9752342       -34.63541
1.608                  0.9746542       -34.81999
1.612                  0.9740639       -35.00546
1.616                  0.9734637        -35.1918
1.62                   0.9728536       -35.37902
1.624                  0.9722338       -35.56714
1.628                  0.9716049       -35.75616
1.632                  0.9709668        -35.9461
1.636                  0.9703199       -36.13697
1.64                   0.9696645       -36.32877
1.644                   0.969001       -36.52153
1.648                  0.9683292       -36.71526
1.652                  0.9676497       -36.90998
1.656                  0.9669628       -37.10572
1.66                   0.9662687       -37.30249
1.664                  0.9655676       -37.50031
1.668                  0.9648596       -37.69922
1.672                  0.9641453       -37.89923
1.676                  0.9634244       -38.10037
1.68                   0.9626977       -38.30268
1.684                   0.961965        -38.5062
1.688                  0.9612266       -38.71092
1.692                  0.9604828       -38.91692
1.696                  0.9597337       -39.12421
1.7                    0.9589792       -39.33284
1.704                  0.9582199       -39.54284
1.708                  0.9574557       -39.75425
1.712                  0.9566865       -39.96713
1.716                  0.9559126        -40.1815
1.72                   0.9551341       -40.39742
1.724                  0.9543507       -40.61493
1.728                   0.953563       -40.83408
1.732                  0.9527704       -41.05492
1.736                  0.9519731       -41.27749
1.74                   0.9511711       -41.50186
1.744                  0.9503642       -41.72808
1.748                  0.9495523       -41.95619
1.752                  0.9487354       -42.18625
1.756                  0.9479131       -42.41832
1.76                   0.9470852       -42.65246
1.764                  0.9462517       -42.88873
1.768                   0.945412       -43.12719
1.772                  0.9445661       -43.36788
1.776                  0.9437136       -43.61089
1.78                   0.9428539       -43.85626
1.784                  0.9419868       -44.10406
1.788                  0.9411118       -44.35435
1.792                  0.9402285       -44.60721
1.796                  0.9393363       -44.86268
1.8                    0.9384348       -45.12084
1.804                  0.9375231       -45.38175
1.808                   0.936601       -45.64548
1.812                  0.9356677       -45.91208
1.816                  0.9347224       -46.18162
1.82                   0.9337644       -46.45419
1.824                  0.9327932       -46.72981
1.828                  0.9318077       -47.00859
1.832                  0.9308074       -47.29057
1.836                  0.9297913       -47.57581
1.84                   0.9287585       -47.86439
1.844                   0.927708       -48.15637
1.848                  0.9266392       -48.45181
1.852                  0.9255507       -48.75078
1.856                  0.9244418       -49.05333
1.86                   0.9233113       -49.35953
1.864                  0.9221584       -49.66944
1.868                  0.9209819       -49.98311
1.872                  0.9197803       -50.30063
1.876                  0.9185531       -50.62204
1.88                   0.9172989       -50.94739
1.884                  0.9160162       -51.27675
1.888                  0.9147043       -51.61016
1.892                  0.9133617        -51.9477
1.896                  0.9119872       -52.28941
1.9                    0.9105795       -52.63535
1.904                  0.9091375       -52.98557
1.908                  0.9076598       -53.34012
1.912                  0.9061452       -53.69905
1.916                  0.9045922       -54.06242
1.92                   0.9029996       -54.43026
1.924                   0.901366       -54.80264
1.928                  0.8996902        -55.1796
1.932                  0.8979708       -55.56117
1.936                  0.8962063       -55.94742
1.94                   0.8943956       -56.33837
1.944                  0.8925372       -56.73408
1.948                  0.8906298       -57.13458
1.952                  0.8886719       -57.53993
1.956                  0.8866623       -57.95015
1.96                   0.8845998       -58.36527
1.964                  0.8824829       -58.78535
1.968                  0.8803102       -59.21043
1.972                  0.8780807       -59.64054
1.976                  0.8757926       -60.07571
1.98                   0.8734449       -60.51599
1.984                  0.8710366       -60.96139
1.988                  0.8685659       -61.41196
1.992                  0.8660319       -61.86775
1.996                  0.8634334       -62.32877
2                       0.860769       -62.79505
2.004                  0.8580376       -63.26664
2.008                  0.8552382       -63.74357
2.012                  0.8523695       -64.22585
2.016                  0.8494305       -64.71354
2.02                     0.84642       -65.20665
2.024                  0.8433372       -65.70523
2.028                  0.8401808       -66.20931
2.032                  0.8369498       -66.71891
2.036                  0.8336437       -67.23407
2.04                   0.8302612       -67.75483
2.044                  0.8268014       -68.28122
2.048                  0.8232638       -68.81326
2.052                  0.8196474       -69.35102
2.056                  0.8159513       -69.89451
2.06                   0.8121749       -70.44376
2.064                  0.8083177       -70.99883
2.068                  0.8043789       -71.55974
2.072                  0.8003579       -72.12655
2.076                  0.7962543        -72.6993
2.08                   0.7920674       -73.27802
2.084                   0.787797       -73.86277
2.088                  0.7834425       -74.45358
2.092                  0.7790036       -75.05052
2.096                  0.7744801       -75.65364
2.1                    0.7698717       -76.26301
2.104                  0.7651782       -76.87865
2.108                  0.7603994       -77.50064
2.112                  0.7555354       -78.12905
2.116                  0.7505861       -78.76395
2.12                   0.7455514        -79.4054
2.124                  0.7404315       -80.05347
2.128                  0.7352264       -80.70827
2.132                  0.7299366       -81.36984
2.136                  0.7245621       -82.03831
2.14                   0.7191034       -82.71374
2.144                  0.7135607       -83.39625
2.148                  0.7079345       -84.08595
2.152                  0.7022255        -84.7829
2.156                  0.6964339       -85.48729
2.16                   0.6905607       -86.19918
2.164                  0.6846064       -86.91873
2.168                  0.6785718       -87.64609
2.172                  0.6724578       -88.38137
2.176                  0.6662651       -89.12474
2.18                   0.6599949       -89.87636
2.184                  0.6536482       -90.63643
2.188                  0.6472259        -91.4051
2.192                  0.6407295       -92.18259
2.196                    0.63416       -92.96907
2.2                    0.6275189       -93.76479
2.204                  0.6208073       -94.56996
2.208                  0.6140271       -95.38486
2.212                  0.6071797       -96.20969
2.216                  0.6002666       -97.04476
2.22                   0.5932896       -97.89036
2.224                  0.5862506        -98.7468
2.228                  0.5791513       -99.61438
2.232                  0.5719938       -100.4935
2.236                  0.5647803       -101.3845
2.24                   0.5575127       -102.2877
2.244                  0.5501935       -103.2036
2.248                  0.5428249       -104.1327
2.252                  0.5354093       -105.0753
2.256                  0.5279495        -106.032
2.26                    0.520448       -107.0034
2.264                  0.5129077       -107.9899
2.268                  0.5053314       -108.9921
2.272                  0.4977222       -110.0108
2.276                  0.4900832       -111.0465
2.28                   0.4824179       -112.0999
2.284                  0.4747295        -113.172
2.288                  0.4670219       -114.2633
2.292                  0.4592986       -115.3749
2.296                  0.4515635       -116.5075
2.3                     0.443821       -117.6622
2.304                  0.4360752       -118.8399
2.308                  0.4283306       -120.0418
2.312                   0.420592       -121.2691
2.316                  0.4128643       -122.5229
2.32                   0.4051527       -123.8045
2.324                  0.3974626       -125.1153
2.328                  0.3897997       -126.4568
2.332                  0.3821701       -127.8305
2.336                  0.3745801        -129.238
2.34                   0.3670363       -130.6809
2.344                  0.3595458       -132.1612
2.348                  0.3521159       -133.6807
2.352                  0.3447544       -135.2413