! TOUCHSTONE file generated by CST MICROWAVE STUDIO
! Date and time: Thu May 12 14:29:59 2022
! Project name: AppElm_antenne_dipole_FR4.cst
! Parameters = {L=38.8; e=0.035; f=2.45e+09; h=1.6; i=0.68; l1=4; lambda=122.449; ls=30; wl=1.7; ws=80}
! Header version: 2018
! Port assignment regex: !\s*Touchstone port\s*([0-9]+)\s*=\s*(CST MWS port|CST DS port)\s*([0-9]+|Zmin|Zmax)\s*\(\"(.*)\"\)(\s*mode\s*([0-9]+))?.*
! Touchstone port assignment:
! Touchstone port 1 = CST MWS port 1 ("")
# GHz S MA R 50
0                      0.9978564              -0
0.004                  0.9978581     -0.04901146
0.008                  0.9978631     -0.09803434
0.012                  0.9978715        -0.14708
0.016                  0.9978831      -0.1961598
0.02                   0.9978981      -0.2452848
0.024                  0.9979162      -0.2944663
0.028                  0.9979376       -0.343715
0.032                  0.9979622      -0.3930418
0.036                  0.9979897       -0.442457
0.04                   0.9980201       -0.491971
0.044                  0.9980534      -0.5415935
0.048                  0.9980895      -0.5913343
0.052                  0.9981281      -0.6412026
0.056                  0.9981693      -0.6912073
0.06                   0.9982128      -0.7413568
0.064                  0.9982587      -0.7916591
0.068                  0.9983066      -0.8421222
0.072                  0.9983565      -0.8927528
0.076                  0.9984082      -0.9435578
0.08                   0.9984614      -0.9945432
0.084                  0.9985161       -1.045715
0.088                  0.9985722       -1.097077
0.092                  0.9986295       -1.148636
0.096                  0.9986876       -1.200394
0.1                    0.9987465       -1.252354
0.104                   0.998806       -1.304521
0.108                  0.9988658       -1.356896
0.112                  0.9989258        -1.40948
0.116                   0.998986       -1.462275
0.12                   0.9990459       -1.515281
0.124                  0.9991054       -1.568497
0.128                  0.9991643       -1.621924
0.132                  0.9992226       -1.675559
0.136                  0.9992801       -1.729401
0.14                   0.9993362       -1.783447
0.144                  0.9993912       -1.837694
0.148                  0.9994447       -1.892138
0.152                  0.9994967       -1.946775
0.156                  0.9995468       -2.001601
0.16                   0.9995948       -2.056609
0.164                  0.9996409       -2.111795
0.168                  0.9996849       -2.167152
0.172                  0.9997263       -2.222673
0.176                  0.9997652       -2.278351
0.18                   0.9998016       -2.334179
0.184                   0.999835       -2.390149
0.188                  0.9998657       -2.446253
0.192                  0.9998936       -2.502481
0.196                   0.999918       -2.558826
0.2                    0.9999396       -2.615277
0.204                  0.9999581       -2.671826
0.208                  0.9999732       -2.728462
0.212                   0.999985       -2.785176
0.216                  0.9999933       -2.841959
0.22                   0.9999984       -2.898799
0.224                          1       -2.955687
0.228                  0.9999982       -3.012613
0.232                  0.9999929       -3.069566
0.236                  0.9999842       -3.126536
0.24                   0.9999722       -3.183514
0.244                  0.9999569       -3.240487
0.248                  0.9999381       -3.297448
0.252                  0.9999161       -3.354386
0.256                   0.999891       -3.411291
0.26                   0.9998627       -3.468154
0.264                  0.9998314       -3.524966
0.268                  0.9997972       -3.581718
0.272                    0.99976         -3.6384
0.276                  0.9997202       -3.695006
0.28                   0.9996778       -3.751526
0.284                  0.9996327       -3.807954
0.288                  0.9995854       -3.864283
0.292                  0.9995358       -3.920504
0.296                  0.9994842       -3.976613
0.3                    0.9994308       -4.032604
0.304                  0.9993755       -4.088471
0.308                  0.9993187        -4.14421
0.312                  0.9992604       -4.199816
0.316                   0.999201       -4.255286
0.32                   0.9991406       -4.310617
0.324                  0.9990793       -4.365805
0.328                  0.9990172        -4.42085
0.332                  0.9989546       -4.475751
0.336                  0.9988919       -4.530506
0.34                    0.998829       -4.585116
0.344                  0.9987662        -4.63958
0.348                  0.9987037       -4.693901
0.352                  0.9986418        -4.74808
0.356                  0.9985805       -4.802119
0.36                   0.9985201       -4.856023
0.364                  0.9984607       -4.909794
0.368                  0.9984025       -4.963436
0.372                  0.9983459       -5.016955
0.376                  0.9982909       -5.070357
0.38                   0.9982375       -5.123647
0.384                  0.9981862       -5.176831
0.388                   0.998137       -5.229918
0.392                    0.99809       -5.282914
0.396                  0.9980454       -5.335829
0.4                    0.9980035        -5.38867
0.404                  0.9979641       -5.441447
0.408                  0.9979276       -5.494169
0.412                   0.997894       -5.546848
0.416                  0.9978636       -5.599491
0.42                   0.9978361       -5.652112
0.424                   0.997812       -5.704719
0.428                  0.9977911       -5.757326
0.432                  0.9977737       -5.809943
0.436                  0.9977597       -5.862583
0.44                   0.9977491       -5.915256
0.444                   0.997742       -5.967976
0.448                  0.9977385       -6.020756
0.452                  0.9977386       -6.073606
0.456                  0.9977422        -6.12654
0.46                   0.9977493        -6.17957
0.464                  0.9977601       -6.232707
0.468                  0.9977743       -6.285966
0.472                  0.9977919       -6.339358
0.476                   0.997813       -6.392895
0.48                   0.9978373        -6.44659
0.484                   0.997865       -6.500452
0.488                  0.9978959       -6.554496
0.492                  0.9979299        -6.60873
0.496                  0.9979667       -6.663168
0.5                    0.9980066       -6.717818
0.504                  0.9980491       -6.772692
0.508                  0.9980942       -6.827799
0.512                  0.9981419       -6.883149
0.516                  0.9981917       -6.938751
0.52                   0.9982438       -6.994614
0.524                  0.9982979       -7.050743
0.528                  0.9983538       -7.107149
0.532                  0.9984113       -7.163837
0.536                  0.9984704       -7.220815
0.54                   0.9985306       -7.278086
0.544                  0.9985918       -7.335659
0.548                  0.9986539       -7.393536
0.552                  0.9987168       -7.451719
0.556                    0.99878       -7.510216
0.56                   0.9988436       -7.569026
0.564                  0.9989072       -7.628155
0.568                  0.9989707         -7.6876
0.572                  0.9990337       -7.747362
0.576                  0.9990961       -7.807443
0.58                   0.9991577       -7.867843
0.584                  0.9992184       -7.928558
0.588                  0.9992779       -7.989588
0.592                  0.9993358        -8.05093
0.596                  0.9993922       -8.112581
0.6                    0.9994468       -8.174537
0.604                  0.9994994       -8.236793
0.608                  0.9995499       -8.299343
0.612                  0.9995978       -8.362185
0.616                  0.9996433       -8.425308
0.62                   0.9996861        -8.48871
0.624                  0.9997259        -8.55238
0.628                  0.9997629       -8.616312
0.632                  0.9997967       -8.680498
0.636                  0.9998271        -8.74493
0.64                   0.9998542       -8.809597
0.644                  0.9998777        -8.87449
0.648                  0.9998976       -8.939601
0.652                  0.9999136       -9.004919
0.656                   0.999926       -9.070431
0.66                   0.9999345       -9.136131
0.664                   0.999939       -9.202006
0.668                  0.9999395       -9.268043
0.672                   0.999936       -9.334234
0.676                  0.9999285       -9.400568
0.68                   0.9999168       -9.467031
0.684                  0.9999012       -9.533612
0.688                  0.9998815       -9.600301
0.692                  0.9998577       -9.667088
0.696                  0.9998299       -9.733958
0.7                    0.9997983       -9.800903
0.704                  0.9997626       -9.867911
0.708                  0.9997233       -9.934969
0.712                  0.9996801       -10.00207
0.716                  0.9996334       -10.06921
0.72                   0.9995829       -10.13636
0.724                  0.9995293       -10.20353
0.728                  0.9994723        -10.2707
0.732                  0.9994121       -10.33786
0.736                  0.9993488       -10.40501
0.74                   0.9992827       -10.47214
0.744                   0.999214       -10.53924
0.748                  0.9991428        -10.6063
0.752                  0.9990692       -10.67333
0.756                  0.9989935        -10.7403
0.76                   0.9989159       -10.80722
0.764                  0.9988364       -10.87408
0.768                  0.9987556       -10.94088
0.772                  0.9986733       -11.00761
0.776                    0.99859       -11.07429
0.78                   0.9985057       -11.14089
0.784                  0.9984208       -11.20742
0.788                  0.9983354       -11.27388
0.792                  0.9982499       -11.34028
0.796                  0.9981643        -11.4066
0.8                    0.9980792       -11.47286
0.804                  0.9979944       -11.53906
0.808                  0.9979104        -11.6052
0.812                  0.9978273       -11.67128
0.816                  0.9977453       -11.73732
0.82                   0.9976647       -11.80331
0.824                  0.9975858       -11.86926
0.828                  0.9975086       -11.93518
0.832                  0.9974335       -12.00108
0.836                  0.9973605       -12.06697
0.84                     0.99729       -12.13285
0.844                  0.9972221       -12.19874
0.848                  0.9971571       -12.26464
0.852                  0.9970949       -12.33058
0.856                  0.9970358       -12.39655
0.86                   0.9969801       -12.46258
0.864                  0.9969276       -12.52867
0.868                  0.9968788       -12.59483
0.872                  0.9968335       -12.66109
0.876                   0.996792       -12.72746
0.88                   0.9967544       -12.79395
0.884                  0.9967207       -12.86058
0.888                   0.996691       -12.92736
0.892                  0.9966654        -12.9943
0.896                  0.9966438       -13.06143
0.9                    0.9966265       -13.12876
0.904                  0.9966131       -13.19631
0.908                  0.9966041       -13.26408
0.912                  0.9965991       -13.33211
0.916                  0.9965982        -13.4004
0.92                   0.9966014       -13.46897
0.924                  0.9966085       -13.53783
0.928                  0.9966197       -13.60701
0.932                  0.9966347       -13.67653
0.936                  0.9966535       -13.74638
0.94                   0.9966759        -13.8166
0.944                  0.9967018       -13.88719
0.948                  0.9967311       -13.95817
0.952                  0.9967638       -14.02956
0.956                  0.9967994       -14.10137
0.96                   0.9968379       -14.17361
0.964                  0.9968794        -14.2463
0.968                  0.9969233       -14.31944
0.972                  0.9969695       -14.39305
0.976                  0.9970177       -14.46715
0.98                    0.997068       -14.54174
0.984                  0.9971199       -14.61683
0.988                  0.9971732       -14.69244
0.992                  0.9972277       -14.76856
0.996                  0.9972831       -14.84522
1                      0.9973392        -14.9224
1.004                  0.9973958       -15.00014
1.008                  0.9974524       -15.07842
1.012                  0.9975088       -15.15725
1.016                  0.9975649       -15.23664
1.02                   0.9976202       -15.31659
1.024                  0.9976747        -15.3971
1.028                  0.9977278       -15.47818
1.032                  0.9977795       -15.55982
1.036                  0.9978293       -15.64203
1.04                   0.9978771       -15.72481
1.044                  0.9979225       -15.80811
1.048                  0.9979653       -15.89201
1.052                  0.9980052       -15.97643
1.056                  0.9980419       -16.06145
1.06                   0.9980754       -16.14699
1.064                   0.998105       -16.23305
1.068                   0.998131       -16.31972
1.072                  0.9981527       -16.40684
1.076                  0.9981702       -16.49451
1.08                   0.9981832       -16.58271
1.084                  0.9981914       -16.67136
1.088                  0.9981947       -16.76054
1.092                  0.9981929        -16.8502
1.096                   0.998186       -16.94033
1.1                    0.9981735       -17.03093
1.104                  0.9981554       -17.12196
1.108                  0.9981318       -17.21343
1.112                  0.9981024       -17.30534
1.116                  0.9980671       -17.39766
1.12                   0.9980258       -17.49036
1.124                  0.9979786       -17.58346
1.128                  0.9979252       -17.67693
1.132                  0.9978658       -17.77076
1.136                  0.9978003       -17.86494
1.14                   0.9977286       -17.95946
1.144                  0.9976509       -18.05429
1.148                   0.997567       -18.14943
1.152                  0.9974772       -18.24486
1.156                  0.9973813       -18.34058
1.16                   0.9972796       -18.43657
1.164                  0.9971722        -18.5328
1.168                   0.997059       -18.62929
1.172                  0.9969403         -18.726
1.176                  0.9968163       -18.82294
1.18                   0.9966868       -18.92008
1.184                  0.9965523       -19.01743
1.188                  0.9964129       -19.11497
1.192                  0.9962689       -19.21269
1.196                  0.9961202       -19.31058
1.2                    0.9959673       -19.40864
1.204                  0.9958104       -19.50686
1.208                  0.9956496       -19.60524
1.212                  0.9954853       -19.70376
1.216                  0.9953177       -19.80242
1.22                   0.9951469       -19.90123
1.224                  0.9949735       -20.00017
1.228                  0.9947976       -20.09926
1.232                  0.9946194       -20.19848
1.236                  0.9944396       -20.29784
1.24                   0.9942579       -20.39734
1.244                  0.9940751       -20.49697
1.248                  0.9938913       -20.59676
1.252                  0.9937067        -20.6967
1.256                  0.9935218       -20.79679
1.26                   0.9933368       -20.89705
1.264                   0.993152       -20.99748
1.268                  0.9929678       -21.09809
1.272                  0.9927845        -21.1989
1.276                  0.9926021       -21.29991
1.28                   0.9924212       -21.40114
1.284                  0.9922421       -21.50259
1.288                  0.9920648        -21.6043
1.292                  0.9918897       -21.70627
1.296                  0.9917172       -21.80851
1.3                    0.9915473       -21.91105
1.304                  0.9913803       -22.01391
1.308                  0.9912165        -22.1171
1.312                   0.991056       -22.22065
1.316                  0.9908991       -22.32458
1.32                   0.9907459       -22.42891
1.324                  0.9905965       -22.53366
1.328                  0.9904512       -22.63886
1.332                    0.99031       -22.74453
1.336                  0.9901729       -22.85071
1.34                   0.9900402        -22.9574
1.344                   0.989912       -23.06465
1.348                  0.9897881       -23.17247
1.352                  0.9896687        -23.2809
1.356                  0.9895537       -23.38996
1.36                   0.9894433       -23.49969
1.364                  0.9893371        -23.6101
1.368                  0.9892355       -23.72123
1.372                  0.9891381        -23.8331
1.376                  0.9890448       -23.94576
1.38                   0.9889556       -24.05921
1.384                  0.9888705        -24.1735
1.388                   0.988789       -24.28864
1.392                  0.9887111       -24.40468
1.396                  0.9886366       -24.52164
1.4                    0.9885653       -24.63953
1.404                  0.9884967        -24.7584
1.408                   0.988431       -24.87827
1.412                  0.9883675       -24.99916
1.416                  0.9883061        -25.1211
1.42                   0.9882465       -25.24411
1.424                  0.9881882       -25.36823
1.428                   0.988131       -25.49346
1.432                  0.9880745       -25.61984
1.436                  0.9880182       -25.74739
1.44                   0.9879619       -25.87613
1.444                   0.987905       -26.00607
1.448                  0.9878472       -26.13724
1.452                  0.9877879       -26.26966
1.456                  0.9877269       -26.40334
1.46                   0.9876635       -26.53829
1.464                  0.9875975       -26.67454
1.468                  0.9875282       -26.81209
1.472                  0.9874551       -26.95097
1.476                  0.9873779       -27.09117
1.48                   0.9872959       -27.23272
1.484                   0.987209       -27.37561
1.488                  0.9871161       -27.51987
1.492                  0.9870173       -27.66549
1.496                  0.9869117       -27.81248
1.5                    0.9867991       -27.96085
1.504                  0.9866789       -28.11059
1.508                  0.9865506       -28.26171
1.512                  0.9864136       -28.41422
1.516                  0.9862678        -28.5681
1.52                   0.9861124       -28.72337
1.524                  0.9859472       -28.88001
1.528                  0.9857714       -29.03804
1.532                   0.985585       -29.19743
1.536                  0.9853875       -29.35819
1.54                   0.9851782       -29.52031
1.544                   0.984957       -29.68378
1.548                  0.9847234        -29.8486
1.552                  0.9844773       -30.01476
1.556                  0.9842181       -30.18225
1.56                   0.9839454       -30.35106
1.564                  0.9836593       -30.52117
1.568                  0.9833592        -30.6926
1.572                  0.9830449        -30.8653
1.576                  0.9827165       -31.03928
1.58                   0.9823732       -31.21454
1.584                  0.9820153       -31.39104
1.588                  0.9816424       -31.56879
1.592                  0.9812543       -31.74778
1.596                  0.9808512       -31.92798
1.6                    0.9804327       -32.10938
1.604                  0.9799987       -32.29199
1.608                  0.9795494       -32.47578
1.612                  0.9790846       -32.66075
1.616                  0.9786046       -32.84688
1.62                   0.9781089       -33.03417
1.624                  0.9775979       -33.22261
1.628                  0.9770715       -33.41218
1.632                    0.97653       -33.60288
1.636                  0.9759733       -33.79472
1.64                   0.9754017       -33.98766
1.644                  0.9748152       -34.18173
1.648                   0.974214        -34.3769
1.652                  0.9735984       -34.57319
1.656                  0.9729684       -34.77058
1.66                   0.9723244       -34.96909
1.664                  0.9716665        -35.1687
1.668                  0.9709954       -35.36943
1.672                  0.9703107       -35.57128
1.676                  0.9696131       -35.77426
1.68                   0.9689027       -35.97837
1.684                    0.96818       -36.18363
1.688                  0.9674451       -36.39006
1.692                  0.9666982       -36.59766
1.696                  0.9659401       -36.80645
1.7                    0.9651708       -37.01645
1.704                  0.9643905       -37.22769
1.708                  0.9635998       -37.44017
1.712                  0.9627988       -37.65394
1.716                  0.9619881       -37.86901
1.72                   0.9611677       -38.08542
1.724                  0.9603379        -38.3032
1.728                  0.9594993       -38.52238
1.732                  0.9586519         -38.743
1.736                  0.9577962        -38.9651
1.74                   0.9569321       -39.18872
1.744                  0.9560602       -39.41391
1.748                  0.9551806       -39.64071
1.752                  0.9542934       -39.86916
1.756                  0.9533988       -40.09932
1.76                   0.9524971       -40.33125
1.764                  0.9515883       -40.56499
1.768                  0.9506726       -40.80061
1.772                  0.9497498       -41.03816
1.776                  0.9488202       -41.27771
1.78                   0.9478838       -41.51931
1.784                  0.9469403       -41.76305
1.788                    0.94599       -42.00898
1.792                  0.9450324       -42.25717
1.796                  0.9440674       -42.50771
1.8                    0.9430953       -42.76065
1.804                  0.9421154       -43.01607
1.808                  0.9411276       -43.27406
1.812                  0.9401314       -43.53468
1.816                  0.9391266       -43.79803
1.82                   0.9381126       -44.06417
1.824                  0.9370892       -44.33319
1.828                  0.9360558       -44.60519
1.832                  0.9350118       -44.88023
1.836                  0.9339566        -45.1584
1.84                   0.9328896       -45.43979
1.844                  0.9318099       -45.72449
1.848                  0.9307169       -46.01258
1.852                    0.92961       -46.30416
1.856                  0.9284881        -46.5993
1.86                   0.9273501       -46.89811
1.864                  0.9261954       -47.20066
1.868                   0.925023       -47.50703
1.872                  0.9238317       -47.81733
1.876                  0.9226205       -48.13164
1.88                   0.9213879       -48.45006
1.884                  0.9201333       -48.77265
1.888                   0.918855       -49.09952
1.892                  0.9175521       -49.43074
1.896                  0.9162228       -49.76642
1.9                     0.914866       -50.10662
1.904                  0.9134806       -50.45143
1.908                  0.9120647       -50.80093
1.912                  0.9106169       -51.15522
1.916                  0.9091359       -51.51436
1.92                   0.9076202       -51.87845
1.924                  0.9060678       -52.24756
1.928                  0.9044776       -52.62175
1.932                  0.9028475       -53.00113
1.936                  0.9011762       -53.38575
1.94                    0.899462        -53.7757
1.944                   0.897703       -54.17103
1.948                  0.8958977       -54.57184
1.952                  0.8940442       -54.97818
1.956                  0.8921407       -55.39014
1.96                   0.8901858       -55.80775
1.964                  0.8881774       -56.23111
1.968                  0.8861139       -56.66026
1.972                  0.8839935       -57.09528
1.976                  0.8818144       -57.53624
1.98                   0.8795749       -57.98318
1.984                   0.877273       -58.43618
1.988                  0.8749072       -58.89528
1.992                  0.8724757       -59.36052
1.996                  0.8699769       -59.83203
2                      0.8674087       -60.30979
2.004                  0.8647697       -60.79388
2.008                  0.8620582       -61.28436
2.012                  0.8592725       -61.78128
2.016                  0.8564109       -62.28468
2.02                    0.853472       -62.79464
2.024                  0.8504539       -63.31119
2.028                  0.8473554       -63.83438
2.032                  0.8441748       -64.36428
2.036                  0.8409108       -64.90093
2.04                   0.8375617       -65.44438
2.044                  0.8341264       -65.99469
2.048                  0.8306034        -66.5519
2.052                  0.8269916       -67.11607
2.056                  0.8232894       -67.68726
2.06                    0.819496       -68.26551
2.064                  0.8156102       -68.85088
2.068                  0.8116309       -69.44344
2.072                  0.8075569       -70.04326
2.076                  0.8033873       -70.65037
2.08                   0.7991214       -71.26484
2.084                  0.7947583       -71.88674
2.088                  0.7902972       -72.51613
2.092                  0.7857375       -73.15308
2.096                  0.7810784       -73.79769
2.1                    0.7763196          -74.45
2.104                  0.7714603       -75.11012
2.108                  0.7665003       -75.77812
2.112                  0.7614394       -76.45406
2.116                  0.7562771       -77.13809
2.12                   0.7510135       -77.83026
2.124                  0.7456483       -78.53068
2.128                  0.7401815       -79.23949
2.132                  0.7346134       -79.95677
2.136                  0.7289441       -80.68264
2.14                    0.723174       -81.41724
2.144                   0.717303       -82.16072
2.148                  0.7113319       -82.91319
2.152                  0.7052613       -83.67483
2.156                  0.6990917       -84.44579
2.16                   0.6928239       -85.22624
2.164                  0.6864587       -86.01634
2.168                   0.679997        -86.8163
2.172                  0.6734398       -87.62634
2.176                  0.6667885       -88.44666
2.18                    0.660044       -89.27748
2.184                  0.6532078       -90.11907
2.188                  0.6462815       -90.97165
2.192                  0.6392665       -91.83554
2.196                  0.6321645         -92.711
2.2                    0.6249774       -93.59835
2.204                   0.617707       -94.49794
2.208                  0.6103554        -95.4101
2.212                  0.6029248       -96.33521
2.216                  0.5954175       -97.27368
2.22                   0.5878359       -98.22592
2.224                  0.5801826       -99.19239
2.228                  0.5724602       -100.1736
2.232                  0.5646715         -101.17
2.236                  0.5568199       -102.1822
2.24                    0.548908       -103.2107
2.244                  0.5409394       -104.2562
2.248                  0.5329176       -105.3193
2.252                  0.5248461       -106.4008
2.256                   0.516729       -107.5013
2.26                   0.5085699       -108.6218
2.264                  0.5003734        -109.763
2.268                  0.4921437       -110.9258
2.272                  0.4838855       -112.1112
2.276                  0.4756037       -113.3203
2.28                   0.4673034       -114.5541
2.284                    0.45899       -115.8138
2.288                   0.450669       -117.1006
2.292                  0.4423465        -118.416
2.296                  0.4340288       -119.7611
2.3                    0.4257223       -121.1377
2.304                   0.417434       -122.5472
2.308                  0.4091712       -123.9913
2.312                  0.4009415       -125.4718
2.316                  0.3927532       -126.9905
2.32                   0.3846146       -128.5495
2.324                  0.3765351       -130.1508
2.328                  0.3685239       -131.7965
2.332                  0.3605913        -133.489
2.336                  0.3527479       -135.2306
2.34                    0.345005       -137.0238
2.344                  0.3373744        -138.871
2.348                  0.3298689       -140.7747
2.352                  0.3225016       -142.7376