! TOUCHSTONE file generated by CST MICROWAVE STUDIO
! Date and time: Thu May 12 14:30:06 2022
! Project name: AppElm_antenne_dipole_FR4.cst
! Parameters = {L=38.8; e=0.035; f=2.45e+09; h=1.6; i=0.96; l1=4; lambda=122.449; ls=30; wl=1.7; ws=80}
! Header version: 2018
! Port assignment regex: !\s*Touchstone port\s*([0-9]+)\s*=\s*(CST MWS port|CST DS port)\s*([0-9]+|Zmin|Zmax)\s*\(\"(.*)\"\)(\s*mode\s*([0-9]+))?.*
! Touchstone port assignment:
! Touchstone port 1 = CST MWS port 1 ("")
# GHz S MA R 50
0                      0.9999574              -0
0.004                  0.9999556     -0.06057221
0.008                  0.9999502      -0.1211349
0.012                  0.9999414      -0.1816786
0.016                  0.9999291      -0.2421938
0.02                   0.9999132      -0.3026712
0.024                  0.9998941      -0.3631016
0.028                  0.9998714      -0.4234756
0.032                  0.9998454      -0.4837845
0.036                  0.9998161      -0.5440193
0.04                   0.9997838      -0.6041714
0.044                  0.9997482      -0.6642324
0.048                  0.9997097      -0.7241942
0.052                  0.9996683      -0.7840486
0.056                   0.999624      -0.8437882
0.06                   0.9995769      -0.9034058
0.064                  0.9995274      -0.9628941
0.068                  0.9994752       -1.022247
0.072                  0.9994208       -1.081457
0.076                  0.9993642       -1.140519
0.08                   0.9993056       -1.199428
0.084                   0.999245       -1.258178
0.088                  0.9991827       -1.316765
0.092                  0.9991187       -1.375184
0.096                  0.9990534       -1.433431
0.1                    0.9989867       -1.491504
0.104                   0.998919       -1.549399
0.108                  0.9988502       -1.607114
0.112                  0.9987807       -1.664647
0.116                  0.9987107       -1.721997
0.12                   0.9986402       -1.779162
0.124                  0.9985693       -1.836143
0.128                  0.9984986       -1.892939
0.132                  0.9984279       -1.949552
0.136                  0.9983575       -2.005981
0.14                   0.9982876        -2.06223
0.144                  0.9982183         -2.1183
0.148                    0.99815       -2.174194
0.152                  0.9980825       -2.229914
0.156                  0.9980162       -2.285466
0.16                   0.9979514       -2.340852
0.164                  0.9978879       -2.396078
0.168                  0.9978261       -2.451149
0.172                  0.9977663        -2.50607
0.176                  0.9977083       -2.560848
0.18                   0.9976525       -2.615488
0.184                   0.997599       -2.669999
0.188                  0.9975478       -2.724387
0.192                  0.9974992        -2.77866
0.196                  0.9974533       -2.832825
0.2                    0.9974101       -2.886893
0.204                  0.9973698       -2.940871
0.208                  0.9973326       -2.994768
0.212                  0.9972984       -3.048595
0.216                  0.9972675        -3.10236
0.22                   0.9972397       -3.156074
0.224                  0.9972153       -3.209747
0.228                  0.9971944       -3.263389
0.232                  0.9971768       -3.317012
0.236                  0.9971628       -3.370625
0.24                   0.9971523       -3.424239
0.244                  0.9971454       -3.477867
0.248                  0.9971421       -3.531518
0.252                  0.9971424       -3.585204
0.256                  0.9971463       -3.638936
0.26                   0.9971539       -3.692727
0.264                  0.9971649       -3.746584
0.268                  0.9971796       -3.800522
0.272                  0.9971978        -3.85455
0.276                  0.9972196        -3.90868
0.28                   0.9972446       -3.962922
0.284                  0.9972731       -4.017288
0.288                  0.9973049       -4.071787
0.292                    0.99734       -4.126429
0.296                  0.9973782       -4.181226
0.3                    0.9974193       -4.236187
0.304                  0.9974635        -4.29132
0.308                  0.9975105       -4.346637
0.312                  0.9975603       -4.402144
0.316                  0.9976127       -4.457851
0.32                   0.9976674       -4.513767
0.324                  0.9977246       -4.569899
0.328                  0.9977838       -4.626254
0.332                  0.9978452        -4.68284
0.336                  0.9979084       -4.739662
0.34                   0.9979734       -4.796728
0.344                  0.9980399       -4.854043
0.348                  0.9981078       -4.911612
0.352                  0.9981769       -4.969441
0.356                   0.998247       -5.027532
0.36                   0.9983181        -5.08589
0.364                  0.9983898       -5.144519
0.368                   0.998462        -5.20342
0.372                  0.9985346       -5.262597
0.376                  0.9986073        -5.32205
0.38                   0.9986799       -5.381781
0.384                  0.9987521        -5.44179
0.388                   0.998824       -5.502079
0.392                  0.9988953       -5.562645
0.396                  0.9989659       -5.623489
0.4                    0.9990352       -5.684609
0.404                  0.9991037       -5.746001
0.408                  0.9991705       -5.807666
0.412                  0.9992361       -5.869599
0.416                  0.9992999       -5.931796
0.42                   0.9993618       -5.994253
0.424                  0.9994217       -6.056968
0.428                  0.9994793       -6.119933
0.432                  0.9995347       -6.183145
0.436                  0.9995875       -6.246596
0.44                   0.9996378       -6.310281
0.444                  0.9996853       -6.374193
0.448                  0.9997298       -6.438327
0.452                  0.9997712       -6.502673
0.456                  0.9998095       -6.567224
0.46                   0.9998446       -6.631971
0.464                  0.9998764       -6.696908
0.468                  0.9999046       -6.762025
0.472                  0.9999294       -6.827314
0.476                  0.9999505       -6.892764
0.48                    0.999968       -6.958369
0.484                  0.9999817       -7.024116
0.488                  0.9999916       -7.089997
0.492                  0.9999977       -7.156002
0.496                          1       -7.222119
0.5                    0.9999982       -7.288343
0.504                  0.9999927        -7.35466
0.508                  0.9999832       -7.421061
0.512                  0.9999698       -7.487537
0.516                  0.9999525       -7.554076
0.52                   0.9999314        -7.62067
0.524                  0.9999064       -7.687306
0.528                  0.9998778       -7.753977
0.532                  0.9998452       -7.820674
0.536                  0.9998092       -7.887385
0.54                   0.9997695       -7.954103
0.544                  0.9997262       -8.020816
0.548                  0.9996796       -8.087518
0.552                  0.9996296       -8.154198
0.556                  0.9995765       -8.220849
0.56                   0.9995202       -8.287463
0.564                  0.9994608       -8.354032
0.568                  0.9993988       -8.420549
0.572                  0.9993339       -8.487008
0.576                  0.9992666       -8.553399
0.58                   0.9991968        -8.61972
0.584                  0.9991246       -8.685963
0.588                  0.9990505       -8.752123
0.592                  0.9989745       -8.818196
0.596                  0.9988966       -8.884176
0.6                    0.9988172        -8.95006
0.604                  0.9987363       -9.015848
0.608                  0.9986544       -9.081531
0.612                  0.9985713       -9.147111
0.616                  0.9984874       -9.212588
0.62                   0.9984029       -9.277957
0.624                  0.9983179        -9.34322
0.628                  0.9982328       -9.408374
0.632                  0.9981476       -9.473422
0.636                  0.9980625       -9.538367
0.64                   0.9979778       -9.603207
0.644                  0.9978938       -9.667947
0.648                  0.9978105       -9.732588
0.652                  0.9977281       -9.797136
0.656                  0.9976469       -9.861595
0.66                   0.9975669       -9.925967
0.664                  0.9974885       -9.990261
0.668                  0.9974119       -10.05448
0.672                  0.9973371       -10.11863
0.676                  0.9972645       -10.18272
0.68                   0.9971941       -10.24676
0.684                  0.9971261       -10.31075
0.688                  0.9970607       -10.37471
0.692                   0.996998       -10.43864
0.696                  0.9969382       -10.50255
0.7                    0.9968813       -10.56645
0.704                  0.9968276       -10.63036
0.708                  0.9967773       -10.69428
0.712                  0.9967303       -10.75822
0.716                  0.9966869        -10.8222
0.72                   0.9966469       -10.88623
0.724                  0.9966107       -10.95031
0.728                  0.9965783       -11.01447
0.732                  0.9965497       -11.07872
0.736                  0.9965252       -11.14306
0.74                   0.9965043       -11.20752
0.744                  0.9964877       -11.27209
0.748                   0.996475       -11.33681
0.752                  0.9964663       -11.40168
0.756                  0.9964617       -11.46671
0.76                   0.9964612       -11.53193
0.764                  0.9964646       -11.59733
0.768                  0.9964722       -11.66295
0.772                  0.9964837       -11.72878
0.776                  0.9964991       -11.79485
0.78                   0.9965184       -11.86117
0.784                  0.9965416       -11.92774
0.788                  0.9965685        -11.9946
0.792                  0.9965989       -12.06174
0.796                  0.9966331       -12.12918
0.8                    0.9966706       -12.19693
0.804                  0.9967113       -12.26501
0.808                  0.9967555       -12.33343
0.812                  0.9968027       -12.40219
0.816                  0.9968527       -12.47132
0.82                   0.9969056       -12.54082
0.824                   0.996961        -12.6107
0.828                  0.9970189       -12.68097
0.832                  0.9970791       -12.75165
0.836                  0.9971412       -12.82273
0.84                   0.9972054       -12.89424
0.844                  0.9972713       -12.96617
0.848                  0.9973385       -13.03854
0.852                  0.9974071       -13.11135
0.856                  0.9974768       -13.18462
0.86                   0.9975473       -13.25833
0.864                  0.9976184       -13.33251
0.868                    0.99769       -13.40715
0.872                  0.9977617       -13.48226
0.876                  0.9978333       -13.55785
0.88                   0.9979047        -13.6339
0.884                  0.9979755       -13.71044
0.888                  0.9980456       -13.78746
0.892                  0.9981147       -13.86496
0.896                  0.9981826       -13.94294
0.9                     0.998249       -14.02139
0.904                  0.9983138       -14.10033
0.908                  0.9983766       -14.17975
0.912                  0.9984373       -14.25964
0.916                  0.9984956          -14.34
0.92                   0.9985514       -14.42084
0.924                  0.9986043       -14.50214
0.928                  0.9986542        -14.5839
0.932                  0.9987009       -14.66611
0.936                  0.9987442       -14.74878
0.94                    0.998784       -14.83189
0.944                  0.9988199       -14.91544
0.948                   0.998852       -14.99942
0.952                  0.9988798       -15.08382
0.956                  0.9989034       -15.16863
0.96                   0.9989224       -15.25385
0.964                  0.9989369       -15.33947
0.968                  0.9989468       -15.42547
0.972                  0.9989517       -15.51185
0.976                  0.9989517        -15.5986
0.98                   0.9989467       -15.68571
0.984                  0.9989365       -15.77316
0.988                   0.998921       -15.86095
0.992                  0.9989003       -15.94907
0.996                  0.9988741       -16.03749
1                      0.9988426       -16.12622
1.004                  0.9988055       -16.21524
1.008                  0.9987631       -16.30454
1.012                   0.998715       -16.39411
1.016                  0.9986616       -16.48393
1.02                   0.9986027         -16.574
1.024                  0.9985384       -16.66431
1.028                  0.9984686       -16.75483
1.032                  0.9983934       -16.84556
1.036                   0.998313       -16.93648
1.04                   0.9982273       -17.02762
1.044                  0.9981364        -17.1189
1.048                  0.9980405        -17.2104
1.052                  0.9979397       -17.30201
1.056                   0.997834       -17.39377
1.06                   0.9977237       -17.48568
1.064                  0.9976087       -17.57773
1.068                  0.9974894       -17.66985
1.072                  0.9973658       -17.76214
1.076                  0.9972382       -17.85451
1.08                   0.9971066       -17.94699
1.084                  0.9969714       -18.03956
1.088                  0.9968326        -18.1322
1.092                  0.9966905       -18.22496
1.096                  0.9965454       -18.31776
1.1                    0.9963974       -18.41063
1.104                  0.9962466       -18.50357
1.108                  0.9960935       -18.59657
1.112                  0.9959382       -18.68963
1.116                   0.995781       -18.78279
1.12                    0.995622       -18.87598
1.124                  0.9954617        -18.9692
1.128                     0.9953       -19.06254
1.132                  0.9951375       -19.15592
1.136                  0.9949744       -19.24937
1.14                   0.9948107       -19.34289
1.144                   0.994647       -19.43649
1.148                  0.9944833       -19.53016
1.152                  0.9943199       -19.62392
1.156                  0.9941573       -19.71777
1.16                   0.9939953       -19.81172
1.164                  0.9938345       -19.90578
1.168                   0.993675       -19.99996
1.172                  0.9935173       -20.09427
1.176                  0.9933611       -20.18872
1.18                   0.9932071       -20.28331
1.184                  0.9930554       -20.37807
1.188                  0.9929062         -20.473
1.192                  0.9927595       -20.56813
1.196                   0.992616       -20.66345
1.2                    0.9924754         -20.759
1.204                   0.992338       -20.85478
1.208                  0.9922042       -20.95082
1.212                   0.992074       -21.04712
1.216                  0.9919473       -21.14372
1.22                   0.9918247       -21.24062
1.224                  0.9917061       -21.33784
1.228                  0.9915916       -21.43541
1.232                  0.9914811       -21.53335
1.236                  0.9913753       -21.63166
1.24                   0.9912735       -21.73039
1.244                  0.9911764       -21.82955
1.248                  0.9910836       -21.92915
1.252                  0.9909955       -22.02923
1.256                  0.9909116       -22.12979
1.26                   0.9908325       -22.23088
1.264                  0.9907578        -22.3325
1.268                  0.9906875       -22.43468
1.272                  0.9906216       -22.53745
1.276                  0.9905601       -22.64083
1.28                   0.9905029       -22.74483
1.284                  0.9904498       -22.84949
1.288                  0.9904008       -22.95482
1.292                  0.9903557       -23.06085
1.296                  0.9903144        -23.1676
1.3                    0.9902767       -23.27509
1.304                  0.9902426       -23.38334
1.308                  0.9902115       -23.49239
1.312                  0.9901836       -23.60224
1.316                  0.9901585       -23.71292
1.32                   0.9901361       -23.82444
1.324                   0.990116       -23.93683
1.328                   0.990098       -24.05012
1.332                  0.9900819        -24.1643
1.336                  0.9900672       -24.27942
1.34                   0.9900539       -24.39548
1.344                  0.9900415        -24.5125
1.348                  0.9900299       -24.63049
1.352                  0.9900185       -24.74948
1.356                   0.990007       -24.86947
1.36                   0.9899951       -24.99049
1.364                  0.9899826       -25.11255
1.368                  0.9899691       -25.23565
1.372                  0.9899539       -25.35981
1.376                   0.989937       -25.48505
1.38                    0.989918       -25.61136
1.384                  0.9898963       -25.73878
1.388                  0.9898717       -25.86729
1.392                  0.9898438       -25.99691
1.396                  0.9898121       -26.12764
1.4                    0.9897763       -26.25949
1.404                  0.9897359       -26.39248
1.408                  0.9896905       -26.52659
1.412                    0.98964       -26.66184
1.416                  0.9895838       -26.79822
1.42                   0.9895214       -26.93575
1.424                  0.9894527       -27.07441
1.428                  0.9893771       -27.21422
1.432                  0.9892942       -27.35516
1.436                  0.9892038       -27.49724
1.44                   0.9891055       -27.64046
1.444                   0.988999        -27.7848
1.448                  0.9888838       -27.93028
1.452                  0.9887596       -28.07688
1.456                  0.9886261        -28.2246
1.46                   0.9884831       -28.37343
1.464                  0.9883302       -28.52337
1.468                  0.9881671       -28.67441
1.472                  0.9879936       -28.82654
1.476                  0.9878093       -28.97975
1.48                    0.987614       -29.13404
1.484                  0.9874075        -29.2894
1.488                  0.9871895       -29.44581
1.492                  0.9869601       -29.60327
1.496                  0.9867187       -29.76177
1.5                    0.9864653       -29.92129
1.504                  0.9861997       -30.08183
1.508                  0.9859218       -30.24338
1.512                  0.9856314       -30.40592
1.516                  0.9853285       -30.56945
1.52                   0.9850129       -30.73395
1.524                  0.9846847       -30.89941
1.528                  0.9843436       -31.06583
1.532                  0.9839896       -31.23319
1.536                  0.9836228       -31.40147
1.54                   0.9832431       -31.57069
1.544                  0.9828507        -31.7408
1.548                  0.9824453       -31.91182
1.552                  0.9820272       -32.08374
1.556                  0.9815964       -32.25654
1.56                   0.9811529       -32.43022
1.564                  0.9806969       -32.60476
1.568                  0.9802284       -32.78018
1.572                  0.9797476       -32.95645
1.576                  0.9792546       -33.13357
1.58                   0.9787497       -33.31153
1.584                  0.9782328       -33.49034
1.588                  0.9777042          -33.67
1.592                  0.9771642       -33.85049
1.596                  0.9766129       -34.03183
1.6                    0.9760505       -34.21401
1.604                  0.9754773       -34.39702
1.608                  0.9748936       -34.58089
1.612                  0.9742995        -34.7656
1.616                  0.9736952       -34.95117
1.62                   0.9730812        -35.1376
1.624                  0.9724576        -35.3249
1.628                  0.9718246       -35.51308
1.632                  0.9711828       -35.70214
1.636                  0.9705322       -35.89212
1.64                    0.969873       -36.08301
1.644                  0.9692059       -36.27483
1.648                  0.9685308       -36.46759
1.652                  0.9678479       -36.66133
1.656                   0.967158       -36.85606
1.66                   0.9664609       -37.05179
1.664                   0.965757       -37.24856
1.668                  0.9650467       -37.44639
1.672                    0.96433        -37.6453
1.676                  0.9636074       -37.84532
1.68                    0.962879       -38.04649
1.684                   0.962145       -38.24883
1.688                  0.9614057       -38.45239
1.692                  0.9606613       -38.65718
1.696                  0.9599119       -38.86326
1.7                    0.9591579       -39.07066
1.704                  0.9583991       -39.27941
1.708                  0.9576359       -39.48956
1.712                  0.9568683       -39.70117
1.716                  0.9560965       -39.91425
1.72                   0.9553204       -40.12887
1.724                  0.9545401       -40.34508
1.728                  0.9537557       -40.56292
1.732                  0.9529673       -40.78244
1.736                  0.9521746        -41.0037
1.74                   0.9513776       -41.22674
1.744                  0.9505763       -41.45163
1.748                  0.9497707       -41.67841
1.752                  0.9489605       -41.90715
1.756                  0.9481456       -42.13791
1.76                   0.9473257       -42.37074
1.764                  0.9465005        -42.6057
1.768                    0.94567       -42.84286
1.772                  0.9448337       -43.08227
1.776                  0.9439913       -43.32401
1.78                   0.9431425       -43.56812
1.784                  0.9422867       -43.81469
1.788                  0.9414234       -44.06377
1.792                  0.9405526       -44.31542
1.796                  0.9396734       -44.56972
1.8                    0.9387853       -44.82673
1.804                  0.9378878       -45.08651
1.808                  0.9369802       -45.34913
1.812                  0.9360619       -45.61468
1.816                   0.935132       -45.88319
1.82                   0.9341901       -46.15475
1.824                  0.9332353       -46.42942
1.828                  0.9322667       -46.70727
1.832                  0.9312836       -46.98836
1.836                   0.930285       -47.27277
1.84                   0.9292702       -47.56055
1.844                  0.9282382       -47.85177
1.848                  0.9271877        -48.1465
1.852                  0.9261182       -48.44481
1.856                  0.9250284       -48.74675
1.86                   0.9239173       -49.05239
1.864                  0.9227839        -49.3618
1.868                   0.921627       -49.67503
1.872                  0.9204455       -49.99214
1.876                  0.9192381        -50.3132
1.88                   0.9180037       -50.63828
1.884                  0.9167411       -50.96742
1.888                  0.9154492       -51.30068
1.892                  0.9141266       -51.63812
1.896                  0.9127719       -51.97981
1.9                    0.9113842       -52.32578
1.904                  0.9099617       -52.67609
1.908                  0.9085035        -53.0308
1.912                  0.9070081       -53.38996
1.916                  0.9054739       -53.75363
1.92                   0.9039001       -54.12184
1.924                  0.9022847       -54.49465
1.928                  0.9006269       -54.87211
1.932                   0.898925       -55.25427
1.936                  0.8971775       -55.64116
1.94                   0.8953835       -56.03283
1.944                  0.8935411       -56.42932
1.948                  0.8916492       -56.83069
1.952                  0.8897063       -57.23697
1.956                   0.887711       -57.64819
1.96                   0.8856621        -58.0644
1.964                   0.883558       -58.48565
1.968                  0.8813975       -58.91196
1.972                  0.8791791       -59.34337
1.976                  0.8769015       -59.77992
1.98                   0.8745637       -60.22165
1.984                   0.872164       -60.66859
1.988                  0.8697012       -61.12077
1.992                  0.8671741       -61.57823
1.996                  0.8645816       -62.04099
2                      0.8619221       -62.50911
2.004                  0.8591946        -62.9826
2.008                  0.8563979       -63.46151
2.012                  0.8535309       -63.94585
2.016                  0.8505925       -64.43566
2.02                   0.8475815       -64.93098
2.024                  0.8444968       -65.43184
2.028                  0.8413374       -65.93827
2.032                  0.8381024       -66.45032
2.036                  0.8347908       -66.96798
2.04                   0.8314017       -67.49132
2.044                   0.827934       -68.02037
2.048                   0.824387       -68.55516
2.052                  0.8207601       -69.09573
2.056                  0.8170522       -69.64209
2.06                   0.8132625       -70.19433
2.064                  0.8093907       -70.75244
2.068                   0.805436       -71.31647
2.072                  0.8013976       -71.88649
2.076                  0.7972752       -72.46251
2.08                   0.7930683       -73.04459
2.084                  0.7887763       -73.63278
2.088                   0.784399       -74.22712
2.092                  0.7799356       -74.82768
2.096                  0.7753864       -75.43448
2.1                     0.770751       -76.04761
2.104                  0.7660289       -76.66711
2.108                  0.7612202       -77.29305
2.112                  0.7563248        -77.9255
2.116                  0.7513427       -78.56451
2.12                   0.7462739       -79.21018
2.124                  0.7411184       -79.86257
2.128                  0.7358766       -80.52176
2.132                  0.7305486       -81.18785
2.136                  0.7251346       -81.86091
2.14                    0.719635       -82.54104
2.144                  0.7140501       -83.22835
2.148                  0.7083805       -83.92295
2.152                  0.7026266       -84.62496
2.156                  0.6967892       -85.33447
2.16                   0.6908687       -86.05162
2.164                  0.6848661       -86.77655
2.168                   0.678782        -87.5094
2.172                  0.6726173       -88.25034
2.176                  0.6663729       -88.99948
2.18                   0.6600498       -89.75703
2.184                  0.6536492       -90.52316
2.188                  0.6471721       -91.29804
2.192                  0.6406198       -92.08189
2.196                  0.6339937       -92.87493
2.2                    0.6272948       -93.67735
2.204                  0.6205249       -94.48942
2.208                  0.6136856       -95.31138
2.212                  0.6067781        -96.1435
2.216                  0.5998043       -96.98607
2.22                   0.5927661       -97.83938
2.224                  0.5856653       -98.70376
2.228                  0.5785038       -99.57954
2.232                  0.5712836       -100.4671
2.236                  0.5640068       -101.3668
2.24                   0.5566759        -102.279
2.244                   0.549293       -103.2042
2.248                  0.5418606       -104.1429
2.252                  0.5343813       -105.0955
2.256                  0.5268576       -106.0625
2.26                   0.5192924       -107.0445
2.264                  0.5116886        -108.042
2.268                  0.5040492       -109.0558
2.272                  0.4963772       -110.0864
2.276                  0.4886761       -111.1345
2.28                   0.4809491       -112.2009
2.284                     0.4732       -113.2864
2.288                  0.4654324       -114.3918
2.292                  0.4576502        -115.518
2.296                  0.4498576       -116.6659
2.3                    0.4420588       -117.8366
2.304                  0.4342583       -119.0311
2.308                  0.4264606       -120.2505
2.312                  0.4186709        -121.496
2.316                  0.4108942        -122.769
2.32                   0.4031358       -124.0708
2.324                  0.3954017       -125.4027
2.328                  0.3876975       -126.7664
2.332                  0.3800296       -128.1634
2.336                  0.3724047       -129.5954
2.34                   0.3648298       -131.0641
2.344                  0.3573121       -132.5715
2.348                  0.3498593       -134.1194
2.352                  0.3424799         -135.71