! TOUCHSTONE file generated by CST MICROWAVE STUDIO
! Date and time: Thu May 12 14:29:57 2022
! Project name: AppElm_antenne_dipole_FR4.cst
! Parameters = {L=38.8; e=0.035; f=2.45e+09; h=1.6; i=0.6; l1=4; lambda=122.449; ls=30; wl=1.7; ws=80}
! Header version: 2018
! Port assignment regex: !\s*Touchstone port\s*([0-9]+)\s*=\s*(CST MWS port|CST DS port)\s*([0-9]+|Zmin|Zmax)\s*\(\"(.*)\"\)(\s*mode\s*([0-9]+))?.*
! Touchstone port assignment:
! Touchstone port 1 = CST MWS port 1 ("")
# GHz S MA R 50
0                      0.9979847              -0
0.004                  0.9979862     -0.04799925
0.008                   0.997991     -0.09600912
0.012                  0.9979987      -0.1440402
0.016                  0.9980096       -0.192103
0.02                   0.9980236       -0.240208
0.024                  0.9980404      -0.2883654
0.028                  0.9980605      -0.3365854
0.032                  0.9980833      -0.3848781
0.036                  0.9981089      -0.4332532
0.04                   0.9981373      -0.4817201
0.044                  0.9981683      -0.5302881
0.048                   0.998202      -0.5789662
0.052                  0.9982381      -0.6277632
0.056                  0.9982764      -0.6766872
0.06                   0.9983171       -0.725746
0.064                  0.9983598      -0.7749475
0.068                  0.9984045      -0.8242986
0.072                  0.9984511       -0.873806
0.076                  0.9984993       -0.923476
0.08                   0.9985492      -0.9733144
0.084                  0.9986003       -1.023326
0.088                  0.9986526       -1.073517
0.092                   0.998706        -1.12389
0.096                  0.9987604        -1.17445
0.1                    0.9988154       -1.225199
0.104                  0.9988711       -1.276141
0.108                  0.9989272       -1.327278
0.112                  0.9989833       -1.378611
0.116                  0.9990396       -1.430141
0.12                   0.9990957       -1.481868
0.124                  0.9991515       -1.533794
0.128                  0.9992069       -1.585916
0.132                  0.9992615       -1.638234
0.136                  0.9993153       -1.690746
0.14                   0.9993682       -1.743451
0.144                  0.9994198       -1.796344
0.148                  0.9994702       -1.849423
0.152                  0.9995189       -1.902685
0.156                  0.9995662       -1.956124
0.16                   0.9996117       -2.009736
0.164                  0.9996552       -2.063516
0.168                  0.9996966       -2.117459
0.172                  0.9997358       -2.171557
0.176                  0.9997727       -2.225804
0.18                   0.9998073       -2.280194
0.184                  0.9998392        -2.33472
0.188                  0.9998685       -2.389374
0.192                   0.999895       -2.444147
0.196                  0.9999186       -2.499033
0.2                    0.9999395       -2.554022
0.204                  0.9999573       -2.609105
0.208                  0.9999721       -2.664274
0.212                  0.9999838        -2.71952
0.216                  0.9999923       -2.774834
0.22                   0.9999977       -2.830206
0.224                          1       -2.885626
0.228                   0.999999       -2.941087
0.232                  0.9999949       -2.996577
0.236                  0.9999874       -3.052087
0.24                   0.9999769       -3.107608
0.244                  0.9999633       -3.163131
0.248                  0.9999465       -3.218647
0.252                  0.9999266       -3.274146
0.256                  0.9999038       -3.329618
0.26                    0.999878       -3.385057
0.264                  0.9998494       -3.440451
0.268                  0.9998179       -3.495795
0.272                  0.9997837       -3.551079
0.276                   0.999747       -3.606294
0.28                   0.9997079       -3.661435
0.284                  0.9996663       -3.716494
0.288                  0.9996225       -3.771464
0.292                  0.9995765        -3.82634
0.296                  0.9995286       -3.881114
0.3                    0.9994789       -3.935781
0.304                  0.9994273       -3.990337
0.308                  0.9993744       -4.044777
0.312                  0.9993201       -4.099096
0.316                  0.9992646       -4.153292
0.32                    0.999208       -4.207361
0.324                  0.9991505       -4.261301
0.328                  0.9990924        -4.31511
0.332                  0.9990338       -4.368786
0.336                  0.9989748       -4.422328
0.34                   0.9989157       -4.475738
0.344                  0.9988566       -4.529014
0.348                  0.9987977       -4.582158
0.352                  0.9987392       -4.635172
0.356                  0.9986813       -4.688057
0.36                   0.9986242       -4.740815
0.364                  0.9985679       -4.793452
0.368                  0.9985128        -4.84597
0.372                   0.998459       -4.898373
0.376                  0.9984065       -4.950666
0.38                   0.9983556       -5.002856
0.384                  0.9983065       -5.054949
0.388                  0.9982595       -5.106949
0.392                  0.9982143       -5.158866
0.396                  0.9981715       -5.210704
0.4                     0.998131       -5.262475
0.404                   0.998093       -5.314184
0.408                  0.9980575       -5.365842
0.412                  0.9980247       -5.417458
0.416                  0.9979946        -5.46904
0.42                   0.9979677       -5.520599
0.424                  0.9979436       -5.572147
0.428                  0.9979226        -5.62369
0.432                  0.9979047       -5.675243
0.436                  0.9978902       -5.726815
0.44                   0.9978788       -5.778419
0.444                  0.9978707       -5.830064
0.448                  0.9978659       -5.881762
0.452                  0.9978644       -5.933526
0.456                  0.9978663       -5.985367
0.46                   0.9978716       -6.037295
0.464                  0.9978802       -6.089324
0.468                  0.9978921       -6.141466
0.472                  0.9979073       -6.193729
0.476                  0.9979256       -6.246129
0.48                   0.9979472       -6.298674
0.484                  0.9979719       -6.351378
0.488                  0.9979996       -6.404249
0.492                  0.9980304       -6.457299
0.496                  0.9980638       -6.510539
0.5                    0.9981001       -6.563979
0.504                  0.9981391       -6.617629
0.508                  0.9981806       -6.671498
0.512                  0.9982244       -6.725595
0.516                  0.9982705        -6.77993
0.52                   0.9983188       -6.834508
0.524                  0.9983689       -6.889343
0.528                  0.9984209       -6.944437
0.532                  0.9984745       -6.999797
0.536                  0.9985297       -7.055432
0.54                    0.998586       -7.111348
0.544                  0.9986435       -7.167548
0.548                  0.9987019       -7.224038
0.552                  0.9987611       -7.280821
0.556                  0.9988207       -7.337903
0.56                   0.9988807       -7.395284
0.564                   0.998941       -7.452968
0.568                  0.9990011       -7.510955
0.572                   0.999061       -7.569248
0.576                  0.9991205       -7.627848
0.58                   0.9991794       -7.686753
0.584                  0.9992373       -7.745963
0.588                  0.9992943       -7.805477
0.592                    0.99935       -7.865291
0.596                  0.9994042       -7.925406
0.6                    0.9994569       -7.985815
0.604                  0.9995078       -8.046516
0.608                  0.9995567       -8.107506
0.612                  0.9996035       -8.168778
0.616                  0.9996481       -8.230327
0.62                     0.99969       -8.292149
0.624                  0.9997294       -8.354235
0.628                   0.999766       -8.416578
0.632                  0.9997999       -8.479171
0.636                  0.9998304       -8.542009
0.64                   0.9998579        -8.60508
0.644                  0.9998821       -8.668377
0.648                  0.9999029       -8.731891
0.652                  0.9999201       -8.795614
0.656                  0.9999339       -8.859535
0.66                    0.999944       -8.923642
0.664                  0.9999504        -8.98793
0.668                  0.9999531       -9.052385
0.672                  0.9999518       -9.116997
0.676                  0.9999468       -9.181756
0.68                   0.9999379       -9.246652
0.684                  0.9999252       -9.311673
0.688                  0.9999087        -9.37681
0.692                  0.9998881       -9.442051
0.696                  0.9998638       -9.507386
0.7                    0.9998357       -9.572802
0.704                  0.9998038       -9.638292
0.708                  0.9997683       -9.703845
0.712                  0.9997293       -9.769448
0.716                  0.9996865       -9.835096
0.72                   0.9996404       -9.900775
0.724                   0.999591       -9.966478
0.728                  0.9995382        -10.0322
0.732                  0.9994824       -10.09792
0.736                  0.9994237       -10.16364
0.74                   0.9993622       -10.22935
0.744                  0.9992978       -10.29505
0.748                  0.9992311       -10.36072
0.752                  0.9991619       -10.42636
0.756                  0.9990906       -10.49196
0.76                   0.9990173       -10.55752
0.764                  0.9989422       -10.62303
0.768                  0.9988655        -10.6885
0.772                  0.9987874       -10.75391
0.776                   0.998708       -10.81927
0.78                   0.9986277       -10.88456
0.784                  0.9985466        -10.9498
0.788                  0.9984649       -11.01498
0.792                  0.9983829        -11.0801
0.796                  0.9983007       -11.14515
0.8                    0.9982185       -11.21015
0.804                  0.9981368        -11.2751
0.808                  0.9980555       -11.33998
0.812                   0.997975       -11.40483
0.816                  0.9978953       -11.46962
0.82                   0.9978169       -11.53438
0.824                  0.9977399        -11.5991
0.828                  0.9976644       -11.66379
0.832                  0.9975908       -11.72846
0.836                  0.9975191       -11.79312
0.84                   0.9974497       -11.85777
0.844                  0.9973825       -11.92244
0.848                  0.9973178       -11.98711
0.852                   0.997256       -12.05181
0.856                   0.997197       -12.11654
0.86                    0.997141       -12.18133
0.864                  0.9970882       -12.24617
0.868                  0.9970386       -12.31109
0.872                  0.9969925       -12.37609
0.876                  0.9969501       -12.44118
0.88                    0.996911        -12.5064
0.884                  0.9968758       -12.57174
0.888                  0.9968445       -12.63722
0.892                  0.9968168       -12.70285
0.896                  0.9967933       -12.76866
0.9                    0.9967736       -12.83466
0.904                  0.9967579       -12.90086
0.908                  0.9967462       -12.96727
0.912                  0.9967386       -13.03392
0.916                  0.9967348       -13.10082
0.92                    0.996735       -13.16799
0.924                  0.9967392       -13.23544
0.928                  0.9967473       -13.30318
0.932                   0.996759       -13.37124
0.936                  0.9967746       -13.43963
0.94                   0.9967937       -13.50836
0.944                  0.9968163       -13.57745
0.948                  0.9968424       -13.64691
0.952                  0.9968717       -13.71676
0.956                   0.996904       -13.78702
0.96                   0.9969394       -13.85769
0.964                  0.9969775       -13.92878
0.968                  0.9970182       -14.00032
0.972                  0.9970613       -14.07231
0.976                  0.9971067       -14.14477
0.98                   0.9971541       -14.21771
0.984                  0.9972032       -14.29112
0.988                   0.997254       -14.36504
0.992                  0.9973061       -14.43946
0.996                  0.9973592        -14.5144
1                      0.9974132       -14.58986
1.004                  0.9974677       -14.66584
1.008                  0.9975226       -14.74237
1.012                  0.9975776       -14.81943
1.016                  0.9976324       -14.89704
1.02                   0.9976867       -14.97519
1.024                  0.9977404        -15.0539
1.028                  0.9977929       -15.13316
1.032                  0.9978443       -15.21298
1.036                  0.9978941       -15.29336
1.04                    0.997942       -15.37431
1.044                  0.9979879       -15.45578
1.048                  0.9980315       -15.53782
1.052                  0.9980723       -15.62039
1.056                  0.9981103       -15.70355
1.06                   0.9981453       -15.78723
1.064                  0.9981769       -15.87146
1.068                  0.9982048       -15.95622
1.072                   0.998229       -16.04148
1.076                  0.9982491        -16.1273
1.08                    0.998265        -16.2136
1.084                  0.9982763       -16.30043
1.088                   0.998283       -16.38777
1.092                  0.9982849       -16.47555
1.096                  0.9982817       -16.56383
1.1                    0.9982734       -16.65256
1.104                  0.9982597       -16.74177
1.108                  0.9982407       -16.83143
1.112                  0.9982159       -16.92148
1.116                  0.9981855         -17.012
1.12                   0.9981494       -17.10292
1.124                  0.9981074        -17.1942
1.128                  0.9980595       -17.28588
1.132                  0.9980056       -17.37793
1.136                  0.9979457       -17.47034
1.14                   0.9978799       -17.56309
1.144                   0.997808       -17.65618
1.148                  0.9977302       -17.74958
1.152                  0.9976463       -17.84328
1.156                  0.9975567       -17.93728
1.16                    0.997461       -18.03156
1.164                  0.9973597        -18.1261
1.168                  0.9972527        -18.2209
1.172                  0.9971402       -18.31594
1.176                  0.9970221       -18.41122
1.18                   0.9968988       -18.50671
1.184                  0.9967704       -18.60242
1.188                   0.996637       -18.69832
1.192                  0.9964987       -18.79442
1.196                  0.9963559        -18.8907
1.2                    0.9962087       -18.98715
1.204                  0.9960572       -19.08377
1.208                   0.995902       -19.18055
1.212                  0.9957429       -19.27749
1.216                  0.9955803       -19.37458
1.22                   0.9954146       -19.47182
1.224                   0.995246        -19.5692
1.228                  0.9950747       -19.66672
1.232                  0.9949011       -19.76438
1.236                  0.9947253       -19.86218
1.24                   0.9945478       -19.96012
1.244                  0.9943687       -20.05821
1.248                  0.9941885       -20.15644
1.252                  0.9940073       -20.25482
1.256                  0.9938257       -20.35336
1.26                   0.9936437       -20.45206
1.264                  0.9934617       -20.55092
1.268                  0.9932802       -20.64997
1.272                   0.993099        -20.7492
1.276                   0.992919       -20.84863
1.28                     0.99274       -20.94827
1.284                  0.9925626       -21.04813
1.288                  0.9923869       -21.14823
1.292                  0.9922132       -21.24858
1.296                  0.9920419        -21.3492
1.3                     0.991873        -21.4501
1.304                  0.9917069       -21.55131
1.308                  0.9915439       -21.65284
1.312                   0.991384       -21.75472
1.316                  0.9912276       -21.85695
1.32                   0.9910748       -21.95957
1.324                  0.9909257        -22.0626
1.328                  0.9907806       -22.16606
1.332                  0.9906396       -22.26998
1.336                  0.9905027       -22.37438
1.34                   0.9903701       -22.47929
1.344                  0.9902419       -22.58473
1.348                   0.990118       -22.69072
1.352                  0.9899987       -22.79731
1.356                  0.9898839       -22.90451
1.36                   0.9897735       -23.01235
1.364                  0.9896678       -23.12087
1.368                  0.9895665       -23.23008
1.372                  0.9894695       -23.34002
1.376                  0.9893769       -23.45072
1.38                   0.9892884        -23.5622
1.384                  0.9892041        -23.6745
1.388                  0.9891236       -23.78764
1.392                   0.989047       -23.90166
1.396                   0.988974       -24.01657
1.4                    0.9889042       -24.13242
1.404                  0.9888377       -24.24921
1.408                  0.9887741         -24.367
1.412                  0.9887131       -24.48579
1.416                  0.9886544       -24.60563
1.42                   0.9885977       -24.72652
1.424                  0.9885429        -24.8485
1.428                  0.9884893       -24.97159
1.432                  0.9884368       -25.09582
1.436                  0.9883847       -25.22121
1.44                    0.988333       -25.34778
1.444                  0.9882811       -25.47555
1.448                  0.9882286       -25.60455
1.452                   0.988175       -25.73478
1.456                    0.98812       -25.86628
1.46                    0.988063       -25.99905
1.464                  0.9880036       -26.13311
1.468                  0.9879413       -26.26848
1.472                  0.9878758       -26.40516
1.476                  0.9878063       -26.54319
1.48                   0.9877326       -26.68256
1.484                  0.9876539       -26.82328
1.488                  0.9875699       -26.96537
1.492                  0.9874801       -27.10882
1.496                  0.9873841       -27.25366
1.5                    0.9872812       -27.39988
1.504                  0.9871711       -27.54749
1.508                  0.9870532       -27.69648
1.512                  0.9869269       -27.84688
1.516                  0.9867919       -27.99866
1.52                   0.9866477       -28.15185
1.524                  0.9864938       -28.30642
1.528                  0.9863297       -28.46238
1.532                   0.986155       -28.61973
1.536                  0.9859694       -28.77846
1.54                   0.9857724       -28.93857
1.544                  0.9855635       -29.10005
1.548                  0.9853424       -29.26289
1.552                  0.9851087       -29.42708
1.556                  0.9848622       -29.59263
1.56                   0.9846023       -29.75951
1.564                  0.9843291       -29.92772
1.568                  0.9840417       -30.09725
1.572                  0.9837405       -30.26808
1.576                  0.9834247       -30.44021
1.58                   0.9830943       -30.61362
1.584                  0.9827492       -30.78831
1.588                   0.982389       -30.96426
1.592                  0.9820138       -31.14145
1.596                  0.9816232       -31.31988
1.6                    0.9812174       -31.49953
1.604                  0.9807958        -31.6804
1.608                  0.9803588       -31.86247
1.612                  0.9799064       -32.04573
1.616                  0.9794382       -32.23016
1.62                   0.9789545       -32.41577
1.624                  0.9784552       -32.60253
1.628                  0.9779403       -32.79044
1.632                  0.9774102        -32.9795
1.636                  0.9768647       -33.16969
1.64                   0.9763041         -33.361
1.644                  0.9757284       -33.55344
1.648                  0.9751379       -33.74699
1.652                  0.9745326       -33.94166
1.656                  0.9739129       -34.13745
1.66                   0.9732789       -34.33435
1.664                  0.9726311       -34.53236
1.668                  0.9719694        -34.7315
1.672                  0.9712941       -34.93175
1.676                   0.970606       -35.13313
1.68                   0.9699049       -35.33565
1.684                  0.9691911       -35.53931
1.688                  0.9684651       -35.74414
1.692                  0.9677272       -35.95013
1.696                  0.9669778       -36.15731
1.7                    0.9662171        -36.3657
1.704                  0.9654455       -36.57533
1.708                  0.9646633       -36.78619
1.712                  0.9638709       -36.99834
1.716                  0.9630687       -37.21178
1.72                   0.9622569       -37.42655
1.724                  0.9614359       -37.64269
1.728                  0.9606061       -37.86022
1.732                  0.9597675        -38.0792
1.736                  0.9589208       -38.29964
1.74                    0.958066       -38.52161
1.744                  0.9572035       -38.74513
1.748                  0.9563335       -38.97026
1.752                  0.9554562       -39.19704
1.756                  0.9545718       -39.42554
1.76                   0.9536805        -39.6558
1.764                  0.9527825       -39.88787
1.768                   0.951878       -40.12183
1.772                  0.9509668       -40.35772
1.776                  0.9500492       -40.59562
1.78                   0.9491252       -40.83558
1.784                  0.9481947       -41.07769
1.788                  0.9472577         -41.322
1.792                  0.9463141       -41.56859
1.796                  0.9453638       -41.81754
1.8                    0.9444068        -42.0689
1.804                  0.9434426       -42.32279
1.808                   0.942471       -42.57926
1.812                  0.9414917       -42.83839
1.816                  0.9405043       -43.10029
1.82                   0.9395086       -43.36502
1.824                  0.9385041       -43.63266
1.828                  0.9374902       -43.90332
1.832                  0.9364663       -44.17708
1.836                   0.935432       -44.45402
1.84                   0.9343863       -44.73425
1.844                  0.9333288       -45.01782
1.848                  0.9322587       -45.30487
1.852                   0.931175       -45.59547
1.856                   0.930077        -45.8897
1.86                   0.9289638       -46.18768
1.864                  0.9278342       -46.48949
1.868                  0.9266874       -46.79522
1.872                  0.9255223       -47.10496
1.876                  0.9243377        -47.4188
1.88                   0.9231324       -47.73685
1.884                  0.9219052        -48.0592
1.888                  0.9206549       -48.38592
1.892                    0.91938       -48.71713
1.896                  0.9180793       -49.05289
1.9                    0.9167514       -49.39333
1.904                  0.9153946       -49.73851
1.908                  0.9140076       -50.08852
1.912                  0.9125889       -50.44344
1.916                  0.9111367       -50.80339
1.92                   0.9096498       -51.16842
1.924                   0.908126       -51.53863
1.928                   0.906564        -51.9141
1.932                  0.9049621       -52.29491
1.936                  0.9033183       -52.68115
1.94                   0.9016311       -53.07287
1.944                  0.8998984       -53.47019
1.948                   0.898119       -53.87316
1.952                  0.8962905       -54.28185
1.956                  0.8944111       -54.69634
1.96                   0.8924792       -55.11671
1.964                   0.890493       -55.54302
1.968                  0.8884502       -55.97535
1.972                  0.8863493       -56.41375
1.976                  0.8841884        -56.8583
1.98                   0.8819655       -57.30907
1.984                  0.8796788       -57.76612
1.988                  0.8773262        -58.2295
1.992                  0.8749063       -58.69928
1.996                  0.8724171       -59.17551
2                      0.8698566       -59.65828
2.004                  0.8672231       -60.14762
2.008                  0.8645149        -60.6436
2.012                  0.8617301       -61.14628
2.016                  0.8588669       -61.65571
2.02                   0.8559239       -62.17194
2.024                  0.8528991       -62.69505
2.028                   0.849791       -63.22507
2.032                  0.8465981       -63.76207
2.036                  0.8433187       -64.30609
2.04                   0.8399513       -64.85722
2.044                  0.8364945       -65.41548
2.048                  0.8329469       -65.98093
2.052                   0.829307       -66.55365
2.056                  0.8255733       -67.13369
2.06                    0.821745        -67.7211
2.064                  0.8178206       -68.31596
2.068                   0.813799       -68.91831
2.072                  0.8096791       -69.52822
2.076                  0.8054599       -70.14578
2.08                   0.8011405       -70.77101
2.084                  0.7967198       -71.40404
2.088                  0.7921973        -72.0449
2.092                  0.7875721       -72.69366
2.096                  0.7828434       -73.35045
2.1                    0.7780109       -74.01531
2.104                  0.7730738       -74.68835
2.108                  0.7680319       -75.36964
2.112                  0.7628848        -76.0593
2.116                  0.7576321       -76.75742
2.12                   0.7522739       -77.46411
2.124                  0.7468098       -78.17946
2.128                  0.7412401       -78.90362
2.132                  0.7355648       -79.63671
2.136                  0.7297839       -80.37886
2.14                   0.7238979       -81.13021
2.144                  0.7179073        -81.8909
2.148                  0.7118123        -82.6611
2.152                  0.7056136       -83.44097
2.156                  0.6993119       -84.23069
2.16                   0.6929082       -85.03046
2.164                   0.686403       -85.84046
2.168                  0.6797976       -86.66093
2.172                  0.6730931       -87.49206
2.176                  0.6662907       -88.33411
2.18                   0.6593917       -89.18732
2.184                  0.6523978       -90.05198
2.188                  0.6453103       -90.92838
2.192                   0.638131       -91.81682
2.196                  0.6308619       -92.71761
2.2                    0.6235048       -93.63114
2.204                   0.616062       -94.55775
2.208                  0.6085354       -95.49782
2.212                  0.6009278       -96.45179
2.216                  0.5932413       -97.42009
2.22                   0.5854789       -98.40323
2.224                  0.5776431       -99.40168
2.228                  0.5697373        -100.416
2.232                  0.5617643       -101.4468
2.236                  0.5537276       -102.4946
2.24                   0.5456304       -103.5601
2.244                  0.5374768        -104.644
2.248                  0.5292703       -105.7471
2.252                  0.5210151       -106.8701
2.256                  0.5127153       -108.0139
2.26                   0.5043756       -109.1794
2.264                  0.4960006       -110.3675
2.268                  0.4875953       -111.5793
2.272                  0.4791648       -112.8159
2.276                  0.4707147       -114.0784
2.28                   0.4622506        -115.368
2.284                  0.4537787       -116.6862
2.288                  0.4453053       -118.0342
2.292                  0.4368372       -119.4136
2.296                  0.4283814       -120.8259
2.3                    0.4199453       -122.2729
2.304                   0.411537       -123.7563
2.308                  0.4031647        -125.278
2.312                  0.3948372       -126.8399
2.316                   0.386564       -128.4443
2.32                   0.3783545       -130.0932
2.324                  0.3702194       -131.7889
2.328                  0.3621697        -133.534
2.332                  0.3542169       -135.3307
2.336                  0.3463734       -137.1817
2.34                   0.3386521       -139.0897
2.344                  0.3310668       -141.0572
2.348                  0.3236319       -143.0868
2.352                  0.3163628       -145.1814