! TOUCHSTONE file generated by CST MICROWAVE STUDIO
! Date and time: Thu May 12 14:30:03 2022
! Project name: AppElm_antenne_dipole_FR4.cst
! Parameters = {L=38.8; e=0.035; f=2.45e+09; h=1.6; i=0.84; l1=4; lambda=122.449; ls=30; wl=1.7; ws=80}
! Header version: 2018
! Port assignment regex: !\s*Touchstone port\s*([0-9]+)\s*=\s*(CST MWS port|CST DS port)\s*([0-9]+|Zmin|Zmax)\s*\(\"(.*)\"\)(\s*mode\s*([0-9]+))?.*
! Touchstone port assignment:
! Touchstone port 1 = CST MWS port 1 ("")
# GHz S MA R 50
0                      0.9999342              -0
0.004                  0.9999338     -0.05568445
0.008                   0.999933       -0.111368
0.012                  0.9999314      -0.1670499
0.016                  0.9999293      -0.2227291
0.02                   0.9999266      -0.2784049
0.024                  0.9999232      -0.3340765
0.028                  0.9999193      -0.3897429
0.032                  0.9999148      -0.4454034
0.036                  0.9999097      -0.5010571
0.04                   0.9999041      -0.5567033
0.044                  0.9998978      -0.6123413
0.048                   0.999891      -0.6679701
0.052                  0.9998836      -0.7235892
0.056                  0.9998759      -0.7791979
0.06                   0.9998676      -0.8347954
0.064                  0.9998586       -0.890381
0.068                  0.9998493      -0.9459544
0.072                  0.9998396       -1.001515
0.076                  0.9998293       -1.057062
0.08                   0.9998187       -1.112595
0.084                  0.9998076       -1.168113
0.088                  0.9997961       -1.223617
0.092                  0.9997842       -1.279105
0.096                  0.9997721       -1.334578
0.1                    0.9997596       -1.390035
0.104                  0.9997468       -1.445476
0.108                  0.9997337       -1.500901
0.112                  0.9997203       -1.556309
0.116                  0.9997067       -1.611702
0.12                   0.9996929       -1.667077
0.124                  0.9996789       -1.722437
0.128                  0.9996647        -1.77778
0.132                  0.9996504       -1.833107
0.136                  0.9996361       -1.888418
0.14                   0.9996217       -1.943714
0.144                  0.9996071       -1.998995
0.148                  0.9995927       -2.054261
0.152                  0.9995783       -2.109512
0.156                  0.9995637       -2.164751
0.16                   0.9995495       -2.219976
0.164                  0.9995351        -2.27519
0.168                   0.999521       -2.330392
0.172                   0.999507       -2.385583
0.176                  0.9994931       -2.440765
0.18                   0.9994795       -2.495939
0.184                  0.9994662       -2.551105
0.188                  0.9994531       -2.606265
0.192                  0.9994403        -2.66142
0.196                  0.9994279       -2.716571
0.2                    0.9994158        -2.77172
0.204                  0.9994041       -2.826868
0.208                  0.9993929       -2.882017
0.212                   0.999382       -2.937169
0.216                  0.9993715       -2.992325
0.22                   0.9993616       -3.047487
0.224                  0.9993523       -3.102657
0.228                  0.9993434       -3.157836
0.232                  0.9993351       -3.213027
0.236                  0.9993273       -3.268233
0.24                   0.9993202       -3.323454
0.244                  0.9993138       -3.378693
0.248                  0.9993079       -3.433953
0.252                  0.9993027       -3.489235
0.256                  0.9992981       -3.544543
0.26                   0.9992944       -3.599878
0.264                  0.9992911       -3.655244
0.268                  0.9992888       -3.710642
0.272                  0.9992871       -3.766075
0.276                  0.9992862       -3.821546
0.28                   0.9992859       -3.877058
0.284                  0.9992865       -3.932612
0.288                  0.9992877       -3.988212
0.292                  0.9992898       -4.043862
0.296                  0.9992926       -4.099563
0.3                    0.9992962       -4.155318
0.304                  0.9993006       -4.211131
0.308                  0.9993056       -4.267003
0.312                  0.9993114       -4.322938
0.316                   0.999318       -4.378939
0.32                   0.9993254       -4.435008
0.324                  0.9993334        -4.49115
0.328                  0.9993422       -4.547364
0.332                  0.9993517       -4.603657
0.336                  0.9993618       -4.660029
0.34                   0.9993727       -4.716483
0.344                  0.9993841       -4.773024
0.348                  0.9993962       -4.829653
0.352                  0.9994089       -4.886372
0.356                  0.9994222       -4.943184
0.36                    0.999436       -5.000093
0.364                  0.9994504       -5.057099
0.368                  0.9994653       -5.114207
0.372                  0.9994805       -5.171418
0.376                  0.9994963       -5.228735
0.38                   0.9995125       -5.286161
0.384                   0.999529       -5.343696
0.388                  0.9995458       -5.401343
0.392                  0.9995629       -5.459106
0.396                  0.9995804       -5.516983
0.4                    0.9995978       -5.574979
0.404                  0.9996156       -5.633095
0.408                  0.9996335       -5.691332
0.412                  0.9996514       -5.749691
0.416                  0.9996694       -5.808176
0.42                   0.9996873       -5.866786
0.424                  0.9997052       -5.925522
0.428                  0.9997232       -5.984386
0.432                  0.9997408       -6.043379
0.436                  0.9997583         -6.1025
0.44                   0.9997755       -6.161753
0.444                  0.9997924       -6.221135
0.448                  0.9998089        -6.28065
0.452                  0.9998251       -6.340295
0.456                   0.999841       -6.400073
0.46                   0.9998562       -6.459982
0.464                   0.999871       -6.520022
0.468                  0.9998852       -6.580194
0.472                  0.9998988       -6.640496
0.476                  0.9999117        -6.70093
0.48                   0.9999238       -6.761494
0.484                  0.9999353       -6.822185
0.488                  0.9999459       -6.883006
0.492                  0.9999556       -6.943955
0.496                  0.9999645        -7.00503
0.5                    0.9999725       -7.066229
0.504                  0.9999796       -7.127553
0.508                  0.9999856       -7.188999
0.512                  0.9999907       -7.250565
0.516                  0.9999946       -7.312251
0.52                   0.9999976       -7.374055
0.524                  0.9999994       -7.435975
0.528                          1       -7.498009
0.532                  0.9999995       -7.560154
0.536                  0.9999978       -7.622409
0.54                   0.9999951       -7.684772
0.544                   0.999991       -7.747242
0.548                  0.9999856       -7.809815
0.552                  0.9999791       -7.872488
0.556                  0.9999715       -7.935261
0.56                   0.9999624       -7.998131
0.564                  0.9999523       -8.061094
0.568                  0.9999409        -8.12415
0.572                  0.9999281       -8.187295
0.576                  0.9999142       -8.250528
0.58                    0.999899       -8.313847
0.584                  0.9998827       -8.377248
0.588                  0.9998652       -8.440729
0.592                  0.9998465        -8.50429
0.596                  0.9998265       -8.567925
0.6                    0.9998056       -8.631634
0.604                  0.9997835       -8.695417
0.608                  0.9997603       -8.759269
0.612                  0.9997361        -8.82319
0.616                   0.999711       -8.887175
0.62                   0.9996849       -8.951225
0.624                  0.9996578       -9.015339
0.628                  0.9996299       -9.079514
0.632                  0.9996012       -9.143748
0.636                  0.9995717       -9.208041
0.64                   0.9995415       -9.272393
0.644                  0.9995105       -9.336801
0.648                  0.9994789       -9.401266
0.652                  0.9994468       -9.465787
0.656                  0.9994143        -9.53036
0.66                   0.9993812       -9.594991
0.664                  0.9993478       -9.659676
0.668                  0.9993141       -9.724413
0.672                  0.9992801       -9.789207
0.676                  0.9992461       -9.854057
0.68                   0.9992118       -9.918962
0.684                  0.9991775       -9.983927
0.688                  0.9991432       -10.04895
0.692                   0.999109       -10.11403
0.696                   0.999075       -10.17917
0.7                    0.9990413       -10.24438
0.704                  0.9990078       -10.30965
0.708                  0.9989746       -10.37498
0.712                   0.998942       -10.44039
0.716                  0.9989099       -10.50587
0.72                   0.9988784       -10.57143
0.724                  0.9988474       -10.63706
0.728                  0.9988172       -10.70278
0.732                  0.9987877       -10.76858
0.736                  0.9987592       -10.83447
0.74                   0.9987314       -10.90045
0.744                  0.9987046       -10.96653
0.748                  0.9986788       -11.03271
0.752                  0.9986542         -11.099
0.756                  0.9986306        -11.1654
0.76                   0.9986081       -11.23191
0.764                  0.9985868       -11.29855
0.768                  0.9985669       -11.36531
0.772                  0.9985482       -11.43221
0.776                  0.9985307       -11.49924
0.78                   0.9985147       -11.56642
0.784                     0.9985       -11.63374
0.788                  0.9984868       -11.70122
0.792                  0.9984748       -11.76887
0.796                  0.9984644       -11.83668
0.8                    0.9984553       -11.90466
0.804                  0.9984479       -11.97283
0.808                  0.9984419       -12.04118
0.812                  0.9984371       -12.10973
0.816                   0.998434       -12.17848
0.82                   0.9984323       -12.24743
0.824                  0.9984319        -12.3166
0.828                  0.9984331       -12.38599
0.832                  0.9984356       -12.45561
0.836                  0.9984393       -12.52546
0.84                   0.9984444       -12.59555
0.844                  0.9984507       -12.66589
0.848                  0.9984584       -12.73648
0.852                  0.9984672       -12.80733
0.856                  0.9984771       -12.87845
0.86                   0.9984881       -12.94984
0.864                  0.9985002       -13.02151
0.868                  0.9985131       -13.09347
0.872                  0.9985271       -13.16571
0.876                  0.9985417       -13.23825
0.88                   0.9985572       -13.31109
0.884                  0.9985731       -13.38425
0.888                  0.9985899       -13.45771
0.892                   0.998607       -13.53149
0.896                  0.9986244       -13.60559
0.9                    0.9986421       -13.68002
0.904                  0.9986601       -13.75478
0.908                  0.9986782       -13.82988
0.912                  0.9986962       -13.90531
0.916                  0.9987142       -13.98109
0.92                   0.9987319       -14.05721
0.924                  0.9987492       -14.13369
0.928                  0.9987661       -14.21051
0.932                  0.9987825       -14.28769
0.936                  0.9987982       -14.36522
0.94                   0.9988132       -14.44312
0.944                  0.9988272       -14.52137
0.948                  0.9988402       -14.59998
0.952                  0.9988522       -14.67896
0.956                  0.9988629        -14.7583
0.96                   0.9988723         -14.838
0.964                  0.9988802       -14.91806
0.968                  0.9988866       -14.99849
0.972                  0.9988912       -15.07928
0.976                  0.9988942       -15.16043
0.98                   0.9988952       -15.24194
0.984                  0.9988941       -15.32382
0.988                  0.9988911       -15.40605
0.992                  0.9988858       -15.48863
0.996                  0.9988783       -15.57157
1                      0.9988684       -15.65486
1.004                  0.9988561        -15.7385
1.008                  0.9988413       -15.82249
1.012                  0.9988238       -15.90682
1.016                  0.9988037       -15.99149
1.02                   0.9987808       -16.07649
1.024                  0.9987551       -16.16183
1.028                  0.9987265       -16.24751
1.032                  0.9986951       -16.33349
1.036                  0.9986606       -16.41979
1.04                   0.9986231        -16.5064
1.044                  0.9985826       -16.59336
1.048                   0.998539        -16.6806
1.052                  0.9984924       -16.76816
1.056                  0.9984426       -16.85602
1.06                   0.9983896       -16.94416
1.064                  0.9983335        -17.0326
1.068                  0.9982744       -17.12131
1.072                   0.998212       -17.21029
1.076                  0.9981467       -17.29957
1.08                   0.9980782       -17.38913
1.084                  0.9980066       -17.47894
1.088                  0.9979321       -17.56901
1.092                  0.9978545       -17.65933
1.096                  0.9977741       -17.74993
1.1                    0.9976907        -17.8408
1.104                  0.9976046       -17.93186
1.108                  0.9975158       -18.02319
1.112                  0.9974242       -18.11477
1.116                  0.9973301        -18.2066
1.12                   0.9972335       -18.29864
1.124                  0.9971344       -18.39093
1.128                   0.997033       -18.48344
1.132                  0.9969295       -18.57619
1.136                  0.9968237       -18.66916
1.14                   0.9967161       -18.76237
1.144                  0.9966065        -18.8558
1.148                  0.9964952       -18.94945
1.152                  0.9963823       -19.04334
1.156                  0.9962677       -19.13746
1.16                    0.996152        -19.2318
1.164                  0.9960348       -19.32638
1.168                  0.9959164       -19.42119
1.172                  0.9957972       -19.51623
1.176                  0.9956772       -19.61152
1.18                   0.9955564       -19.70705
1.184                   0.995435       -19.80282
1.188                  0.9953133       -19.89885
1.192                  0.9951912       -19.99513
1.196                  0.9950689       -20.09167
1.2                    0.9949469       -20.18848
1.204                  0.9948247       -20.28557
1.208                  0.9947029       -20.38294
1.212                  0.9945815        -20.4806
1.216                  0.9944607       -20.57856
1.22                   0.9943404       -20.67683
1.224                  0.9942209       -20.77541
1.228                  0.9941025       -20.87432
1.232                  0.9939849       -20.97356
1.236                  0.9938685       -21.07315
1.24                   0.9937534       -21.17311
1.244                  0.9936395       -21.27343
1.248                  0.9935272       -21.37414
1.252                  0.9934163       -21.47524
1.256                  0.9933071       -21.57675
1.26                   0.9931994       -21.67868
1.264                  0.9930935       -21.78105
1.268                  0.9929894       -21.88387
1.272                  0.9928871       -21.98716
1.276                  0.9927867       -22.09093
1.28                   0.9926883       -22.19519
1.284                  0.9925917       -22.29997
1.288                  0.9924971       -22.40527
1.292                  0.9924044       -22.51112
1.296                  0.9923137       -22.61752
1.3                    0.9922248       -22.72451
1.304                  0.9921379        -22.8321
1.308                  0.9920528       -22.94028
1.312                  0.9919695        -23.0491
1.316                   0.991888       -23.15857
1.32                   0.9918081       -23.26869
1.324                  0.9917298       -23.37949
1.328                  0.9916529         -23.491
1.332                  0.9915775       -23.60321
1.336                  0.9915034       -23.71616
1.34                   0.9914303       -23.82985
1.344                  0.9913584       -23.94431
1.348                  0.9912872       -24.05955
1.352                  0.9912168       -24.17559
1.356                  0.9911469       -24.29244
1.36                   0.9910774       -24.41013
1.364                   0.991008       -24.52866
1.368                  0.9909387       -24.64805
1.372                  0.9908691       -24.76832
1.376                  0.9907991       -24.88948
1.38                   0.9907284       -25.01155
1.384                  0.9906568       -25.13453
1.388                   0.990584       -25.25846
1.392                    0.99051       -25.38332
1.396                  0.9904343       -25.50915
1.4                    0.9903566       -25.63595
1.404                  0.9902768       -25.76374
1.408                  0.9901947       -25.89252
1.412                  0.9901097        -26.0223
1.416                  0.9900219        -26.1531
1.42                   0.9899307       -26.28493
1.424                   0.989836       -26.41779
1.428                  0.9897374        -26.5517
1.432                  0.9896347       -26.68665
1.436                  0.9895275       -26.82266
1.44                   0.9894157       -26.95974
1.444                  0.9892987       -27.09789
1.448                  0.9891764       -27.23712
1.452                  0.9890486       -27.37743
1.456                  0.9889148       -27.51882
1.46                   0.9887749       -27.66131
1.464                  0.9886284       -27.80489
1.468                  0.9884751       -27.94956
1.472                  0.9883148       -28.09533
1.476                  0.9881471        -28.2422
1.48                   0.9879717       -28.39017
1.484                  0.9877887       -28.53924
1.488                  0.9875974       -28.68941
1.492                  0.9873978       -28.84068
1.496                  0.9871894       -28.99305
1.5                    0.9869723       -29.14652
1.504                   0.986746       -29.30108
1.508                  0.9865103       -29.45675
1.512                  0.9862651        -29.6135
1.516                  0.9860103       -29.77134
1.52                   0.9857455       -29.93027
1.524                  0.9854705       -30.09028
1.528                  0.9851852       -30.25138
1.532                  0.9848897       -30.41354
1.536                  0.9845835       -30.57678
1.54                   0.9842667       -30.74109
1.544                  0.9839388       -30.90647
1.548                  0.9836002       -31.07291
1.552                  0.9832505        -31.2404
1.556                  0.9828897       -31.40896
1.56                   0.9825176       -31.57856
1.564                  0.9821344       -31.74921
1.568                  0.9817399        -31.9209
1.572                  0.9813339       -32.09364
1.576                  0.9809168       -32.26742
1.58                   0.9804882       -32.44223
1.584                  0.9800483       -32.61808
1.588                  0.9795971       -32.79496
1.592                  0.9791346       -32.97289
1.596                  0.9786609       -33.15184
1.6                     0.978176       -33.33183
1.604                    0.97768       -33.51285
1.608                  0.9771729       -33.69492
1.612                  0.9766549       -33.87802
1.616                  0.9761261       -34.06217
1.62                   0.9755864       -34.24737
1.624                  0.9750363       -34.43362
1.628                  0.9744756       -34.62093
1.632                  0.9739045       -34.80931
1.636                  0.9733233       -34.99877
1.64                    0.972732       -35.18932
1.644                  0.9721307       -35.38096
1.648                  0.9715197       -35.57371
1.652                  0.9708991       -35.76759
1.656                  0.9702691       -35.96261
1.66                   0.9696298       -36.15877
1.664                  0.9689813        -36.3561
1.668                  0.9683241       -36.55462
1.672                  0.9676582       -36.75435
1.676                  0.9669835       -36.95532
1.68                   0.9663005       -37.15752
1.684                  0.9656091       -37.36101
1.688                  0.9649097        -37.5658
1.692                  0.9642023       -37.77192
1.696                  0.9634871        -37.9794
1.7                    0.9627642       -38.18825
1.704                  0.9620338       -38.39854
1.708                  0.9612958       -38.61027
1.712                  0.9605507       -38.82349
1.716                  0.9597983       -39.03823
1.72                   0.9590385       -39.25454
1.724                  0.9582716       -39.47245
1.728                  0.9574978         -39.692
1.732                  0.9567168       -39.91323
1.736                  0.9559287       -40.13619
1.74                   0.9551337       -40.36092
1.744                  0.9543315       -40.58747
1.748                  0.9535222        -40.8159
1.752                  0.9527056       -41.04623
1.756                  0.9518816       -41.27855
1.76                   0.9510502       -41.51287
1.764                  0.9502111       -41.74928
1.768                  0.9493643       -41.98782
1.772                  0.9485093       -42.22854
1.776                   0.947646        -42.4715
1.78                   0.9467743       -42.71676
1.784                  0.9458938       -42.96439
1.788                   0.945004       -43.21444
1.792                  0.9441047       -43.46696
1.796                  0.9431953       -43.72204
1.8                    0.9422758       -43.97972
1.804                  0.9413453       -44.24007
1.808                  0.9404034       -44.50317
1.812                  0.9394498       -44.76905
1.816                  0.9384839       -45.03781
1.82                   0.9375049       -45.30949
1.824                  0.9365121       -45.58417
1.828                  0.9355051       -45.86193
1.832                  0.9344831       -46.14281
1.836                  0.9334453        -46.4269
1.84                    0.932391       -46.71425
1.844                  0.9313194       -47.00495
1.848                  0.9302296       -47.29904
1.852                  0.9291208        -47.5966
1.856                  0.9279919       -47.89772
1.86                   0.9268423       -48.20243
1.864                  0.9256707       -48.51081
1.868                  0.9244763       -48.82294
1.872                  0.9232579       -49.13889
1.876                  0.9220146       -49.45869
1.88                   0.9207452       -49.78245
1.884                  0.9194487       -50.11021
1.888                  0.9181237       -50.44204
1.892                  0.9167694       -50.77801
1.896                  0.9153844       -51.11817
1.9                    0.9139673       -51.46259
1.904                   0.912517       -51.81134
1.908                  0.9110322       -52.16448
1.912                  0.9095119       -52.52206
1.916                  0.9079542       -52.88415
1.92                   0.9063583       -53.25081
1.924                  0.9047226       -53.62209
1.928                  0.9030457       -53.99805
1.932                  0.9013265       -54.37875
1.936                  0.8995633       -54.76425
1.94                   0.8977548       -55.15459
1.944                  0.8958997       -55.54984
1.948                  0.8939965       -55.95004
1.952                  0.8920438       -56.35526
1.956                  0.8900402       -56.76553
1.96                   0.8879842       -57.18092
1.964                  0.8858745       -57.60146
1.968                  0.8837096       -58.02722
1.972                   0.881488       -58.45823
1.976                  0.8792085       -58.89457
1.98                   0.8768695       -59.33624
1.984                  0.8744697       -59.78331
1.988                  0.8720076       -60.23584
1.992                   0.869482       -60.69386
1.996                  0.8668915       -61.15741
2                      0.8642347       -61.62654
2.004                  0.8615104       -62.10129
2.008                  0.8587169       -62.58172
2.012                  0.8558534       -63.06786
2.016                  0.8529184       -63.55975
2.02                   0.8499109       -64.05744
2.024                  0.8468292       -64.56098
2.028                  0.8436725        -65.0704
2.032                  0.8404397       -65.58575
2.036                  0.8371295       -66.10707
2.04                   0.8337408       -66.63442
2.044                  0.8302726       -67.16782
2.048                  0.8267239       -67.70735
2.052                   0.823094       -68.25301
2.056                  0.8193814       -68.80489
2.06                   0.8155857       -69.36301
2.064                  0.8117058       -69.92744
2.068                  0.8077408       -70.49823
2.072                  0.8036903       -71.07542
2.076                  0.7995533       -71.65908
2.08                   0.7953294       -72.24923
2.084                  0.7910177       -72.84597
2.088                  0.7866178       -73.44935
2.092                  0.7821292       -74.05942
2.096                  0.7775513       -74.67627
2.1                    0.7728839       -75.29994
2.104                  0.7681267       -75.93051
2.108                  0.7632792       -76.56805
2.112                  0.7583414       -77.21265
2.116                  0.7533131        -77.8644
2.12                    0.748194       -78.52336
2.124                  0.7429844       -79.18963
2.128                  0.7376839       -79.86332
2.132                  0.7322932       -80.54452
2.136                  0.7268121       -81.23332
2.14                   0.7212409       -81.92985
2.144                  0.7155797       -82.63422
2.148                  0.7098294       -83.34655
2.152                    0.70399       -84.06699
2.156                  0.6980622       -84.79563
2.16                   0.6920467       -85.53268
2.164                  0.6859439       -86.27825
2.168                  0.6797548       -87.03252
2.172                  0.6734802       -87.79564
2.176                  0.6671211       -88.56781
2.18                   0.6606782       -89.34922
2.184                  0.6541528       -90.14009
2.188                  0.6475462       -90.94059
2.192                  0.6408594       -91.75101
2.196                  0.6340938       -92.57156
2.2                     0.627251       -93.40248
2.204                  0.6203322       -94.24407
2.208                  0.6133394        -95.0966
2.212                  0.6062741        -95.9604
2.216                  0.5991381       -96.83578
2.22                   0.5919336       -97.72309
2.224                  0.5846623        -98.6227
2.228                  0.5773265       -99.53499
2.232                  0.5699283       -100.4604
2.236                    0.56247       -101.3993
2.24                   0.5549544       -102.3522
2.244                  0.5473839       -103.3197
2.248                   0.539761       -104.3021
2.252                   0.532089       -105.3001
2.256                  0.5243705       -106.3143
2.26                   0.5166089       -107.3454
2.264                  0.5088073       -108.3939
2.268                  0.5009692       -109.4606
2.272                  0.4930982       -110.5463
2.276                  0.4851981       -111.6518
2.28                   0.4772727       -112.7779
2.284                  0.4693263       -113.9256
2.288                  0.4613631       -115.0958
2.292                  0.4533877       -116.2896
2.296                   0.445405        -117.508
2.3                    0.4374198       -118.7522
2.304                  0.4294375       -120.0236
2.308                  0.4214636       -121.3234
2.312                  0.4135038       -122.6529
2.316                  0.4055644       -124.0138
2.32                   0.3976517       -125.4074
2.324                  0.3897726       -126.8356
2.328                  0.3819341       -128.3001
2.332                  0.3741439       -129.8026
2.336                  0.3664098       -131.3452
2.34                   0.3587405       -132.9299
2.344                  0.3511445       -134.5587
2.348                  0.3436315        -136.234
2.352                  0.3362112       -137.9579