! TOUCHSTONE file generated by CST MICROWAVE STUDIO
! Date and time: Thu May 12 14:30:04 2022
! Project name: AppElm_antenne_dipole_FR4.cst
! Parameters = {L=38.8; e=0.035; f=2.45e+09; h=1.6; i=0.88; l1=4; lambda=122.449; ls=30; wl=1.7; ws=80}
! Header version: 2018
! Port assignment regex: !\s*Touchstone port\s*([0-9]+)\s*=\s*(CST MWS port|CST DS port)\s*([0-9]+|Zmin|Zmax)\s*\(\"(.*)\"\)(\s*mode\s*([0-9]+))?.*
! Touchstone port assignment:
! Touchstone port 1 = CST MWS port 1 ("")
# GHz S MA R 50
0                      0.9999238              -0
0.004                  0.9999236      -0.0559202
0.008                   0.999923      -0.1118403
0.012                  0.9999221      -0.1677601
0.016                   0.999921      -0.2236795
0.02                   0.9999192      -0.2795983
0.024                  0.9999172      -0.3355165
0.028                  0.9999149      -0.3914339
0.032                  0.9999123      -0.4473504
0.036                  0.9999092      -0.5032659
0.04                   0.9999056      -0.5591802
0.044                   0.999902      -0.6150932
0.048                  0.9998978      -0.6710048
0.052                  0.9998934      -0.7269149
0.056                  0.9998886      -0.7828234
0.06                   0.9998837      -0.8387301
0.064                  0.9998782      -0.8946349
0.068                  0.9998724      -0.9505379
0.072                  0.9998665       -1.006439
0.076                  0.9998601       -1.062338
0.08                   0.9998535       -1.118235
0.084                  0.9998466       -1.174129
0.088                  0.9998394       -1.230021
0.092                  0.9998319       -1.285911
0.096                  0.9998243       -1.341799
0.1                    0.9998163       -1.397684
0.104                  0.9998081       -1.453567
0.108                  0.9997997       -1.509448
0.112                   0.999791       -1.565326
0.116                  0.9997822       -1.621203
0.12                   0.9997733       -1.677076
0.124                  0.9997642       -1.732949
0.128                  0.9997547       -1.788819
0.132                  0.9997452       -1.844687
0.136                  0.9997355       -1.900554
0.14                   0.9997259        -1.95642
0.144                   0.999716       -2.012284
0.148                   0.999706       -2.068147
0.152                   0.999696       -2.124011
0.156                   0.999686       -2.179873
0.16                    0.999676       -2.235736
0.164                  0.9996658         -2.2916
0.168                  0.9996556       -2.347464
0.172                  0.9996455        -2.40333
0.176                  0.9996356       -2.459198
0.18                   0.9996255       -2.515069
0.184                  0.9996155       -2.570943
0.188                  0.9996057        -2.62682
0.192                   0.999596       -2.682703
0.196                  0.9995864        -2.73859
0.2                     0.999577       -2.794485
0.204                  0.9995677       -2.850386
0.208                  0.9995587       -2.906295
0.212                  0.9995499       -2.962214
0.216                  0.9995412       -3.018142
0.22                   0.9995328       -3.074082
0.224                  0.9995247       -3.130034
0.228                   0.999517          -3.186
0.232                  0.9995095       -3.241981
0.236                  0.9995023       -3.297978
0.24                   0.9994954       -3.353993
0.244                  0.9994891       -3.410027
0.248                   0.999483       -3.466081
0.252                  0.9994774       -3.522158
0.256                  0.9994721       -3.578258
0.26                   0.9994674       -3.634384
0.264                  0.9994632       -3.690538
0.268                  0.9994593        -3.74672
0.272                  0.9994559       -3.802934
0.276                  0.9994531       -3.859181
0.28                   0.9994508       -3.915463
0.284                  0.9994489       -3.971782
0.288                  0.9994477       -4.028139
0.292                   0.999447       -4.084538
0.296                  0.9994468        -4.14098
0.3                    0.9994472       -4.197469
0.304                  0.9994482       -4.254004
0.308                  0.9994496       -4.310591
0.312                  0.9994518       -4.367229
0.316                  0.9994545       -4.423922
0.32                   0.9994578       -4.480673
0.324                  0.9994616       -4.537483
0.328                  0.9994661       -4.594355
0.332                  0.9994711       -4.651292
0.336                  0.9994767       -4.708296
0.34                   0.9994828       -4.765369
0.344                  0.9994895       -4.822515
0.348                  0.9994969       -4.879734
0.352                  0.9995047       -4.937031
0.356                  0.9995131       -4.994407
0.36                    0.999522       -5.051866
0.364                  0.9995314       -5.109408
0.368                  0.9995413       -5.167036
0.372                  0.9995516       -5.224756
0.376                  0.9995625       -5.282566
0.38                   0.9995738       -5.340467
0.384                  0.9995854       -5.398467
0.388                  0.9995975       -5.456566
0.392                  0.9996099       -5.514765
0.396                  0.9996227       -5.573065
0.4                    0.9996356       -5.631471
0.404                   0.999649       -5.689984
0.408                  0.9996626       -5.748606
0.412                  0.9996764       -5.807337
0.416                  0.9996902       -5.866183
0.42                   0.9997042       -5.925142
0.424                  0.9997186       -5.984216
0.428                  0.9997328       -6.043408
0.432                  0.9997472       -6.102717
0.436                  0.9997615       -6.162149
0.44                   0.9997757       -6.221702
0.444                  0.9997899       -6.281376
0.448                  0.9998041       -6.341175
0.452                  0.9998178       -6.401098
0.456                  0.9998316       -6.461146
0.46                   0.9998451        -6.52132
0.464                  0.9998582       -6.581622
0.468                  0.9998711       -6.642051
0.472                  0.9998834       -6.702608
0.476                  0.9998956       -6.763292
0.48                   0.9999071       -6.824104
0.484                  0.9999182       -6.885045
0.488                  0.9999287       -6.946114
0.492                  0.9999387       -7.007311
0.496                  0.9999482       -7.068635
0.5                    0.9999569       -7.130087
0.504                  0.9999648       -7.191665
0.508                  0.9999721        -7.25337
0.512                  0.9999787       -7.315198
0.516                  0.9999842       -7.377152
0.52                   0.9999891       -7.439229
0.524                  0.9999932       -7.501428
0.528                  0.9999962        -7.56375
0.532                  0.9999985       -7.626191
0.536                  0.9999997       -7.688749
0.54                   0.9999999       -7.751426
0.544                  0.9999992       -7.814218
0.548                  0.9999974       -7.877125
0.552                  0.9999947       -7.940142
0.556                  0.9999908        -8.00327
0.56                   0.9999859        -8.06651
0.564                  0.9999799       -8.129856
0.568                  0.9999728       -8.193307
0.572                  0.9999645        -8.25686
0.576                  0.9999552       -8.320515
0.58                   0.9999449        -8.38427
0.584                  0.9999333       -8.448123
0.588                  0.9999207       -8.512071
0.592                  0.9999069       -8.576113
0.596                  0.9998923       -8.640246
0.6                    0.9998764       -8.704469
0.604                  0.9998595        -8.76878
0.608                  0.9998415       -8.833176
0.612                  0.9998224       -8.897658
0.616                  0.9998024        -8.96222
0.62                   0.9997814       -9.026866
0.624                  0.9997595       -9.091588
0.628                  0.9997366       -9.156389
0.632                  0.9997128       -9.221265
0.636                  0.9996882       -9.286216
0.64                   0.9996629       -9.351239
0.644                  0.9996366       -9.416335
0.648                  0.9996097         -9.4815
0.652                  0.9995821       -9.546738
0.656                  0.9995538       -9.612043
0.66                   0.9995249       -9.677418
0.664                  0.9994955       -9.742861
0.668                  0.9994657       -9.808371
0.672                  0.9994354       -9.873948
0.676                  0.9994047       -9.939594
0.68                   0.9993737       -10.00531
0.684                  0.9993424       -10.07109
0.688                  0.9993109       -10.13694
0.692                  0.9992793       -10.20285
0.696                  0.9992477       -10.26884
0.7                     0.999216        -10.3349
0.704                  0.9991843       -10.40103
0.708                  0.9991528       -10.46724
0.712                  0.9991214       -10.53352
0.716                  0.9990902       -10.59987
0.72                   0.9990595       -10.66631
0.724                  0.9990291       -10.73283
0.728                   0.998999       -10.79944
0.732                  0.9989695       -10.86612
0.736                  0.9989404       -10.93291
0.74                    0.998912       -10.99978
0.744                  0.9988843       -11.06675
0.748                  0.9988573       -11.13382
0.752                  0.9988311         -11.201
0.756                  0.9988057       -11.26828
0.76                   0.9987812       -11.33568
0.764                  0.9987575       -11.40319
0.768                   0.998735       -11.47082
0.772                  0.9987133       -11.53858
0.776                  0.9986928       -11.60647
0.78                   0.9986734        -11.6745
0.784                  0.9986551       -11.74266
0.788                   0.998638       -11.81097
0.792                  0.9986221       -11.87944
0.796                  0.9986073       -11.94806
0.8                    0.9985939       -12.01684
0.804                  0.9985817        -12.0858
0.808                  0.9985708       -12.15492
0.812                   0.998561       -12.22424
0.816                  0.9985527       -12.29373
0.82                   0.9985456       -12.36342
0.824                  0.9985399       -12.43331
0.828                  0.9985353       -12.50341
0.832                  0.9985321       -12.57372
0.836                  0.9985301       -12.64425
0.84                   0.9985293         -12.715
0.844                  0.9985299       -12.78598
0.848                  0.9985315        -12.8572
0.852                  0.9985343       -12.92867
0.856                  0.9985383       -13.00038
0.86                   0.9985432       -13.07236
0.864                  0.9985493       -13.14459
0.868                  0.9985562        -13.2171
0.872                  0.9985642       -13.28988
0.876                  0.9985729       -13.36294
0.88                   0.9985826       -13.43628
0.884                  0.9985929       -13.50992
0.888                  0.9986038       -13.58385
0.892                  0.9986154       -13.65809
0.896                  0.9986274       -13.73264
0.9                      0.99864       -13.80749
0.904                  0.9986529       -13.88267
0.908                  0.9986661       -13.95817
0.912                  0.9986793       -14.03399
0.916                  0.9986927       -14.11015
0.92                   0.9987061       -14.18663
0.924                  0.9987193       -14.26346
0.928                  0.9987324       -14.34063
0.932                  0.9987451       -14.41814
0.936                  0.9987574         -14.496
0.94                   0.9987692       -14.57421
0.944                  0.9987804       -14.65277
0.948                  0.9987909       -14.73169
0.952                  0.9988005       -14.81096
0.956                  0.9988091       -14.89059
0.96                   0.9988168       -14.97058
0.964                  0.9988232       -15.05093
0.968                  0.9988284       -15.13164
0.972                  0.9988323       -15.21271
0.976                  0.9988346       -15.29415
0.98                   0.9988353       -15.37594
0.984                  0.9988344        -15.4581
0.988                  0.9988317       -15.54061
0.992                  0.9988272       -15.62348
0.996                  0.9988206       -15.70672
1                      0.9988121        -15.7903
1.004                  0.9988013       -15.87425
1.008                  0.9987883       -15.95854
1.012                   0.998773       -16.04319
1.016                  0.9987553       -16.12818
1.02                   0.9987351       -16.21352
1.024                  0.9987124        -16.2992
1.028                  0.9986872       -16.38523
1.032                  0.9986591       -16.47159
1.036                  0.9986284       -16.55828
1.04                    0.998595        -16.6453
1.044                  0.9985587       -16.73264
1.048                  0.9985195       -16.82031
1.052                  0.9984774       -16.90829
1.056                  0.9984325       -16.99661
1.06                   0.9983845       -17.08524
1.064                  0.9983336       -17.17414
1.068                  0.9982796       -17.26337
1.072                  0.9982228       -17.35288
1.076                  0.9981629       -17.44271
1.08                   0.9981001       -17.53281
1.084                  0.9980342       -17.62319
1.088                  0.9979654        -17.7139
1.092                  0.9978938       -17.80485
1.096                  0.9978192        -17.8961
1.1                    0.9977418       -17.98759
1.104                  0.9976616       -18.07934
1.108                  0.9975785       -18.17138
1.112                  0.9974929       -18.26367
1.116                  0.9974045       -18.35623
1.12                   0.9973136       -18.44907
1.124                  0.9972202       -18.54212
1.128                  0.9971243       -18.63544
1.132                  0.9970262       -18.72901
1.136                  0.9969258       -18.82284
1.14                   0.9968232        -18.9169
1.144                  0.9967187       -19.01121
1.148                  0.9966121       -19.10577
1.152                  0.9965037       -19.20058
1.156                  0.9963937       -19.29563
1.16                   0.9962819       -19.39093
1.164                  0.9961686       -19.48647
1.168                   0.996054       -19.58226
1.172                  0.9959381       -19.67831
1.176                  0.9958212       -19.77461
1.18                   0.9957031       -19.87116
1.184                  0.9955843       -19.96798
1.188                  0.9954645       -20.06505
1.192                  0.9953444        -20.1624
1.196                  0.9952237       -20.26002
1.2                    0.9951026       -20.35791
1.204                  0.9949814       -20.45609
1.208                  0.9948599       -20.55455
1.212                  0.9947387       -20.65331
1.216                  0.9946174       -20.75238
1.22                   0.9944964       -20.85176
1.224                  0.9943759       -20.95146
1.228                   0.994256       -21.05149
1.232                  0.9941366       -21.15185
1.236                   0.994018       -21.25256
1.24                   0.9939003       -21.35363
1.244                  0.9937835       -21.45507
1.248                  0.9936677       -21.55688
1.252                  0.9935531       -21.65909
1.256                  0.9934396       -21.76171
1.26                   0.9933276       -21.86473
1.264                  0.9932168       -21.96819
1.268                  0.9931076       -22.07209
1.272                  0.9929996       -22.17645
1.276                  0.9928934       -22.28128
1.28                   0.9927886       -22.38659
1.284                  0.9926856       -22.49239
1.288                   0.992584       -22.59872
1.292                  0.9924843       -22.70557
1.296                   0.992386       -22.81297
1.3                    0.9922896       -22.92093
1.304                  0.9921947       -23.02947
1.308                  0.9921014        -23.1386
1.312                  0.9920097       -23.24834
1.316                  0.9919194        -23.3587
1.32                   0.9918307       -23.46971
1.324                  0.9917434       -23.58138
1.328                  0.9916574       -23.69372
1.332                  0.9915727       -23.80676
1.336                  0.9914891       -23.92051
1.34                   0.9914066       -24.03498
1.344                   0.991325        -24.1502
1.348                  0.9912442       -24.26617
1.352                  0.9911641       -24.38292
1.356                  0.9910845       -24.50046
1.36                   0.9910052       -24.61881
1.364                  0.9909261       -24.73799
1.368                  0.9908472       -24.85799
1.372                   0.990768       -24.97886
1.376                  0.9906883        -25.1006
1.38                   0.9906082       -25.22322
1.384                  0.9905273       -25.34673
1.388                  0.9904454       -25.47117
1.392                  0.9903623       -25.59652
1.396                  0.9902777       -25.72282
1.4                    0.9901914       -25.85007
1.404                  0.9901032       -25.97828
1.408                  0.9900127       -26.10747
1.412                  0.9899198       -26.23764
1.416                  0.9898243       -26.36882
1.42                   0.9897256         -26.501
1.424                  0.9896238        -26.6342
1.428                  0.9895184       -26.76843
1.432                  0.9894091        -26.9037
1.436                  0.9892958       -27.04001
1.44                   0.9891781       -27.17737
1.444                  0.9890558        -27.3158
1.448                  0.9889283       -27.45529
1.452                  0.9887957       -27.59585
1.456                  0.9886577       -27.73749
1.46                   0.9885138       -27.88021
1.464                  0.9883637       -28.02403
1.468                  0.9882073       -28.16893
1.472                  0.9880443       -28.31492
1.476                  0.9878743       -28.46202
1.48                   0.9876971       -28.61021
1.484                  0.9875125        -28.7595
1.488                  0.9873201        -28.9099
1.492                  0.9871199        -29.0614
1.496                  0.9869113         -29.214
1.5                    0.9866943        -29.3677
1.504                  0.9864686       -29.52252
1.508                  0.9862339       -29.67842
1.512                  0.9859901       -29.83544
1.516                  0.9857371       -29.99355
1.52                   0.9854746       -30.15276
1.524                  0.9852021       -30.31306
1.528                  0.9849197       -30.47447
1.532                  0.9846274       -30.63696
1.536                  0.9843248       -30.80053
1.54                   0.9840117        -30.9652
1.544                  0.9836883       -31.13095
1.548                   0.983354       -31.29778
1.552                   0.983009       -31.46569
1.556                  0.9826532       -31.63467
1.56                   0.9822864       -31.80473
1.564                  0.9819086       -31.97585
1.568                  0.9815197       -32.14804
1.572                  0.9811197        -32.3213
1.576                  0.9807084       -32.49563
1.58                   0.9802859       -32.67101
1.584                  0.9798524       -32.84746
1.588                  0.9794074       -33.02496
1.592                  0.9789513       -33.20353
1.596                   0.978484       -33.38316
1.6                    0.9780054       -33.56386
1.604                  0.9775158       -33.74561
1.608                  0.9770151       -33.92843
1.612                  0.9765033       -34.11231
1.616                  0.9759807       -34.29728
1.62                   0.9754471       -34.48331
1.624                  0.9749029       -34.67043
1.628                   0.974348       -34.85863
1.632                  0.9737824       -35.04793
1.636                  0.9732065       -35.23833
1.64                   0.9726204       -35.42984
1.644                  0.9720239       -35.62248
1.648                  0.9714173       -35.81625
1.652                   0.970801       -36.01117
1.656                  0.9701747       -36.20723
1.66                    0.969539       -36.40448
1.664                  0.9688937       -36.60292
1.668                   0.968239       -36.80257
1.672                  0.9675753       -37.00344
1.676                  0.9669024       -37.20555
1.68                   0.9662207       -37.40894
1.684                  0.9655301       -37.61361
1.688                  0.9648309        -37.8196
1.692                  0.9641234       -38.02693
1.696                  0.9634072       -38.23562
1.7                     0.962683       -38.44572
1.704                  0.9619505       -38.65724
1.708                  0.9612101        -38.8702
1.712                  0.9604616       -39.08467
1.716                  0.9597054       -39.30066
1.72                   0.9589412        -39.5182
1.724                  0.9581693       -39.73735
1.728                  0.9573898       -39.95813
1.732                  0.9566025       -40.18059
1.736                  0.9558074       -40.40477
1.74                   0.9550047        -40.6307
1.744                  0.9541942       -40.85845
1.748                  0.9533759       -41.08805
1.752                  0.9525496       -41.31955
1.756                  0.9517155       -41.55299
1.76                   0.9508731       -41.78844
1.764                  0.9500225       -42.02593
1.768                  0.9491635       -42.26553
1.772                  0.9482958       -42.50728
1.776                  0.9474192       -42.75125
1.78                   0.9465335       -42.99748
1.784                  0.9456384       -43.24603
1.788                  0.9447335       -43.49697
1.792                  0.9438187       -43.75035
1.796                  0.9428933       -44.00623
1.8                     0.941957       -44.26468
1.804                  0.9410096       -44.52574
1.808                  0.9400504        -44.7895
1.812                  0.9390788       -45.05599
1.816                  0.9380946       -45.32531
1.82                   0.9370968        -45.5975
1.824                  0.9360853       -45.87262
1.828                   0.935059       -46.15076
1.832                  0.9340175       -46.43197
1.836                    0.93296       -46.71632
1.84                   0.9318858       -47.00386
1.844                  0.9307941       -47.29468
1.848                  0.9296842       -47.58883
1.852                  0.9285551       -47.88639
1.856                  0.9274061       -48.18741
1.86                   0.9262361       -48.49196
1.864                  0.9250443       -48.80012
1.868                  0.9238298       -49.11194
1.872                  0.9225915       -49.42749
1.876                  0.9213284       -49.74684
1.88                   0.9200396       -50.07005
1.884                  0.9187237       -50.39718
1.888                  0.9173799        -50.7283
1.892                  0.9160068       -51.06348
1.896                  0.9146035       -51.40277
1.9                    0.9131686       -51.74625
1.904                  0.9117011       -52.09395
1.908                  0.9101997       -52.44596
1.912                   0.908663       -52.80234
1.916                    0.90709       -53.16312
1.92                   0.9054792       -53.52839
1.924                  0.9038293       -53.89821
1.928                  0.9021391       -54.27261
1.932                  0.9004073       -54.65166
1.936                  0.8986324       -55.03543
1.94                   0.8968131       -55.42396
1.944                   0.894948       -55.81729
1.948                   0.893036        -56.2155
1.952                  0.8910755       -56.61863
1.956                   0.889065       -57.02673
1.96                   0.8870033       -57.43986
1.964                  0.8848889       -57.85807
1.968                  0.8827206       -58.28139
1.972                  0.8804968       -58.70988
1.976                  0.8782163        -59.1436
1.98                   0.8758774       -59.58258
1.984                  0.8734793       -60.02688
1.988                  0.8710202       -60.47654
1.992                  0.8684988        -60.9316
1.996                   0.865914       -61.39211
2                      0.8632642       -61.85811
2.004                  0.8605483       -62.32966
2.008                  0.8577649       -62.80679
2.012                  0.8549129       -63.28955
2.016                   0.851991       -63.77797
2.02                   0.8489978       -64.27211
2.024                  0.8459323         -64.772
2.028                  0.8427932        -65.2777
2.032                  0.8395796       -65.78924
2.036                  0.8362902       -66.30667
2.04                   0.8329241       -66.83002
2.044                  0.8294799       -67.35936
2.048                  0.8259569       -67.89474
2.052                  0.8223542       -68.43616
2.056                  0.8186706       -68.98372
2.06                   0.8149055       -69.53743
2.064                  0.8110577       -70.09735
2.068                  0.8071268       -70.66353
2.072                  0.8031118       -71.23604
2.076                   0.799012       -71.81491
2.08                   0.7948267       -72.40022
2.084                  0.7905555         -72.992
2.088                  0.7861976       -73.59032
2.092                  0.7817527       -74.19523
2.096                  0.7772202       -74.80682
2.1                    0.7725996       -75.42513
2.104                  0.7678907       -76.05026
2.108                  0.7630932       -76.68226
2.112                  0.7582068       -77.32119
2.116                  0.7532314       -77.96716
2.12                   0.7481668       -78.62023
2.124                  0.7430132        -79.2805
2.128                  0.7377702       -79.94806
2.132                  0.7324382         -80.623
2.136                  0.7270172       -81.30543
2.14                   0.7215075       -81.99546
2.144                  0.7159093       -82.69319
2.148                  0.7102229       -83.39875
2.152                  0.7044488       -84.11225
2.156                  0.6985876       -84.83383
2.16                   0.6926396       -85.56363
2.164                  0.6866058        -86.3018
2.168                  0.6804865       -87.04849
2.172                  0.6742827       -87.80387
2.176                  0.6679954       -88.56811
2.18                   0.6616252       -89.34138
2.184                  0.6551735       -90.12392
2.188                  0.6486411       -90.91588
2.192                  0.6420294       -91.71751
2.196                  0.6353397       -92.52905
2.2                    0.6285732       -93.35072
2.204                  0.6217314        -94.1828
2.208                   0.614816       -95.02554
2.212                  0.6078285       -95.87927
2.216                  0.6007706       -96.74426
2.22                   0.5936443       -97.62087
2.224                  0.5864514       -98.50942
2.228                   0.579194       -99.41033
2.232                  0.5718742       -100.3239
2.236                  0.5644944       -101.2507
2.24                   0.5570567        -102.191
2.244                  0.5495637       -103.1454
2.248                  0.5420182       -104.1143
2.252                  0.5344227       -105.0983
2.256                  0.5267802        -106.098
2.26                   0.5190935       -107.1139
2.264                  0.5113659       -108.1467
2.268                  0.5036007       -109.1971
2.272                  0.4958012       -110.2657
2.276                  0.4879711       -111.3535
2.28                   0.4801141        -112.461
2.284                  0.4722342       -113.5893
2.288                  0.4643356       -114.7393
2.292                  0.4564225        -115.912
2.296                  0.4484995       -117.1083
2.3                    0.4405714       -118.3294
2.304                  0.4326431       -119.5765
2.308                  0.4247199       -120.8508
2.312                  0.4168073       -122.1536
2.316                  0.4089112       -123.4864
2.32                   0.4010376       -124.8506
2.324                  0.3931929       -126.2479
2.328                  0.3853841       -127.6798
2.332                  0.3776181       -129.1481
2.336                  0.3699023       -130.6548
2.34                   0.3622449       -132.2016
2.344                  0.3546543       -133.7906
2.348                  0.3471391        -135.424
2.352                  0.3397089       -137.1039