! TOUCHSTONE file generated by CST MICROWAVE STUDIO
! Date and time: Sat May 14 11:42:19 2022
! Project name: AppElm_antenne_dipole_Alumina.cst
! Parameters = {L=39.6; e=0.035; f=2.45e+09; h=1.6; i=0.8; l1=2; lambda=122.449; ls=30; wl=1.7; ws=80}
! Header version: 2018
! Port assignment regex: !\s*Touchstone port\s*([0-9]+)\s*=\s*(CST MWS port|CST DS port)\s*([0-9]+|Zmin|Zmax)\s*\(\"(.*)\"\)(\s*mode\s*([0-9]+))?.*
! Touchstone port assignment:
! Touchstone port 1 = CST MWS port 1 ("")
# GHz S MA R 50
0                      0.9999824              -0
0.004                  0.9999795     -0.07782525
0.008                  0.9999708      -0.1556323
0.012                  0.9999564       -0.233403
0.016                  0.9999363      -0.3111194
0.02                   0.9999105      -0.3887635
0.024                  0.9998791       -0.466318
0.028                  0.9998424      -0.5437655
0.032                  0.9998004      -0.6210891
0.036                  0.9997532      -0.6982723
0.04                   0.9997008      -0.7752994
0.044                  0.9996436      -0.8521546
0.048                  0.9995819      -0.9288234
0.052                  0.9995158       -1.005292
0.056                  0.9994453       -1.081545
0.06                   0.9993709       -1.157573
0.064                  0.9992927       -1.233361
0.068                  0.9992111         -1.3089
0.072                  0.9991263       -1.384179
0.076                  0.9990385       -1.459189
0.08                   0.9989483       -1.533921
0.084                  0.9988556       -1.608369
0.088                   0.998761       -1.682526
0.092                  0.9986647       -1.756386
0.096                  0.9985671       -1.829947
0.1                    0.9984684       -1.903204
0.104                  0.9983691       -1.976156
0.108                  0.9982694       -2.048802
0.112                  0.9981697       -2.121142
0.116                  0.9980704       -2.193177
0.12                   0.9979718       -2.264911
0.124                  0.9978741       -2.336347
0.128                  0.9977777        -2.40749
0.132                   0.997683       -2.478346
0.136                  0.9975904       -2.548921
0.14                      0.9975       -2.619224
0.144                  0.9974123       -2.689264
0.148                  0.9973275       -2.759052
0.152                   0.997246       -2.828598
0.156                  0.9971678       -2.897915
0.16                   0.9970934       -2.967016
0.164                  0.9970231       -3.035914
0.168                  0.9969571       -3.104625
0.172                  0.9968956       -3.173165
0.176                  0.9968386        -3.24155
0.18                   0.9967865       -3.309796
0.184                  0.9967397       -3.377922
0.188                   0.996698       -3.445947
0.192                  0.9966617       -3.513888
0.196                  0.9966309       -3.581767
0.2                    0.9966058       -3.649601
0.204                  0.9965864       -3.717413
0.208                  0.9965728       -3.785221
0.212                   0.996565       -3.853047
0.216                  0.9965631       -3.920913
0.22                    0.996567       -3.988838
0.224                  0.9965769       -4.056844
0.228                  0.9965925       -4.124951
0.232                   0.996614       -4.193181
0.236                  0.9966412       -4.261555
0.24                    0.996674       -4.330092
0.244                  0.9967124       -4.398812
0.248                  0.9967562       -4.467736
0.252                  0.9968052       -4.536883
0.256                  0.9968593       -4.606271
0.26                   0.9969184       -4.675919
0.264                  0.9969822       -4.745844
0.268                  0.9970504       -4.816064
0.272                  0.9971229       -4.886595
0.276                  0.9971994        -4.95745
0.28                   0.9972798       -5.028646
0.284                  0.9973635       -5.100196
0.288                  0.9974506       -5.172113
0.292                  0.9975405       -5.244408
0.296                   0.997633       -5.317093
0.3                    0.9977278       -5.390176
0.304                  0.9978245       -5.463668
0.308                  0.9979229       -5.537575
0.312                  0.9980226       -5.611904
0.316                  0.9981232       -5.686659
0.32                   0.9982245       -5.761846
0.324                  0.9983259       -5.837469
0.328                  0.9984272       -5.913527
0.332                  0.9985281       -5.990022
0.336                  0.9986282       -6.066954
0.34                    0.998727       -6.144322
0.344                  0.9988245       -6.222122
0.348                  0.9989201       -6.300351
0.352                  0.9990134       -6.379003
0.356                  0.9991044       -6.458072
0.36                   0.9991924       -6.537552
0.364                  0.9992774       -6.617435
0.368                  0.9993587       -6.697711
0.372                  0.9994365       -6.778369
0.376                  0.9995102         -6.8594
0.38                   0.9995795        -6.94079
0.384                  0.9996443       -7.022526
0.388                  0.9997043       -7.104596
0.392                  0.9997593       -7.186984
0.396                   0.999809       -7.269677
0.4                    0.9998534       -7.352656
0.404                  0.9998923       -7.435907
0.408                  0.9999252       -7.519411
0.412                  0.9999524       -7.603152
0.416                  0.9999736       -7.687112
0.42                   0.9999885       -7.771272
0.424                  0.9999973       -7.855615
0.428                          1       -7.940118
0.432                  0.9999964       -8.024767
0.436                  0.9999863       -8.109541
0.44                   0.9999701        -8.19442
0.444                  0.9999475       -8.279388
0.448                  0.9999189       -8.364421
0.452                  0.9998841       -8.449504
0.456                   0.999843       -8.534618
0.46                   0.9997962       -8.619742
0.464                  0.9997434       -8.704862
0.468                  0.9996849       -8.789957
0.472                  0.9996211       -8.875012
0.476                  0.9995518       -8.960012
0.48                   0.9994774       -9.044938
0.484                   0.999398       -9.129778
0.488                  0.9993141       -9.214513
0.492                  0.9992256       -9.299135
0.496                   0.999133       -9.383629
0.5                    0.9990366       -9.467983
0.504                  0.9989365       -9.552186
0.508                  0.9988333       -9.636229
0.512                   0.998727         -9.7201
0.516                  0.9986183       -9.803796
0.52                   0.9985072       -9.887308
0.524                  0.9983943       -9.970631
0.528                  0.9982795       -10.05376
0.532                  0.9981638       -10.13669
0.536                  0.9980473       -10.21943
0.54                   0.9979301       -10.30197
0.544                  0.9978129        -10.3843
0.548                   0.997696       -10.46645
0.552                  0.9975797       -10.54839
0.556                  0.9974645       -10.63016
0.56                   0.9973507       -10.71173
0.564                  0.9972388       -10.79314
0.568                  0.9971287       -10.87437
0.572                  0.9970214       -10.95545
0.576                  0.9969168       -11.03638
0.58                   0.9968153       -11.11717
0.584                  0.9967173       -11.19785
0.588                  0.9966231       -11.27841
0.592                  0.9965332       -11.35889
0.596                  0.9964476       -11.43928
0.6                    0.9963667       -11.51962
0.604                  0.9962907       -11.59992
0.608                  0.9962199        -11.6802
0.612                  0.9961545       -11.76048
0.616                  0.9960948       -11.84078
0.62                   0.9960408       -11.92112
0.624                  0.9959928       -12.00152
0.628                  0.9959509       -12.08202
0.632                  0.9959153       -12.16263
0.636                  0.9958861       -12.24337
0.64                   0.9958633       -12.32427
0.644                   0.995847       -12.40535
0.648                  0.9958373       -12.48665
0.652                   0.995834       -12.56818
0.656                  0.9958374       -12.64997
0.66                   0.9958473       -12.73205
0.664                  0.9958636       -12.81444
0.668                  0.9958863       -12.89716
0.672                  0.9959153       -12.98025
0.676                  0.9959505       -13.06372
0.68                   0.9959918        -13.1476
0.684                  0.9960387       -13.23192
0.688                  0.9960914       -13.31669
0.692                  0.9961495       -13.40195
0.696                  0.9962129        -13.4877
0.7                    0.9962811       -13.57398
0.704                  0.9963541       -13.66081
0.708                  0.9964315        -13.7482
0.712                   0.996513       -13.83617
0.716                  0.9965982       -13.92474
0.72                   0.9966869       -14.01393
0.724                  0.9967786       -14.10375
0.728                   0.996873       -14.19422
0.732                  0.9969698       -14.28535
0.736                  0.9970684       -14.37716
0.74                   0.9971687       -14.46964
0.744                    0.99727       -14.56282
0.748                  0.9973721       -14.65671
0.752                  0.9974744        -14.7513
0.756                  0.9975765       -14.84661
0.76                   0.9976782       -14.94263
0.764                  0.9977789       -15.03938
0.768                  0.9978781       -15.13685
0.772                  0.9979754       -15.23504
0.776                  0.9980704       -15.33396
0.78                   0.9981628       -15.43359
0.784                  0.9982518       -15.53394
0.788                  0.9983375       -15.63501
0.792                  0.9984192       -15.73677
0.796                  0.9984964       -15.83924
0.8                     0.998569       -15.94239
0.804                  0.9986365       -16.04621
0.808                  0.9986985       -16.15071
0.812                  0.9987547       -16.25586
0.816                  0.9988048       -16.36164
0.82                   0.9988484       -16.46805
0.824                  0.9988852       -16.57507
0.828                   0.998915       -16.68269
0.832                  0.9989374       -16.79088
0.836                  0.9989525       -16.89963
0.84                   0.9989597       -17.00891
0.844                  0.9989592       -17.11872
0.848                  0.9989503       -17.22902
0.852                  0.9989333       -17.33981
0.856                  0.9989079       -17.45105
0.86                   0.9988741       -17.56273
0.864                  0.9988316       -17.67483
0.868                  0.9987808       -17.78731
0.872                  0.9987212       -17.90017
0.876                  0.9986529       -18.01338
0.88                   0.9985762       -18.12692
0.884                   0.998491       -18.24076
0.888                  0.9983972       -18.35489
0.892                  0.9982952       -18.46929
0.896                   0.998185       -18.58392
0.9                    0.9980667       -18.69878
0.904                  0.9979407       -18.81384
0.908                   0.997807       -18.92909
0.912                  0.9976658        -19.0445
0.916                  0.9975175       -19.16007
0.92                   0.9973623       -19.27576
0.924                  0.9972005       -19.39158
0.928                  0.9970324       -19.50749
0.932                  0.9968585        -19.6235
0.936                  0.9966788       -19.73957
0.94                   0.9964942       -19.85572
0.944                  0.9963045       -19.97193
0.948                  0.9961104       -20.08818
0.952                  0.9959124       -20.20447
0.956                  0.9957108        -20.3208
0.96                   0.9955061       -20.43716
0.964                  0.9952987       -20.55356
0.968                  0.9950889       -20.66998
0.972                  0.9948776       -20.78643
0.976                  0.9946649       -20.90292
0.98                   0.9944514       -21.01944
0.984                  0.9942375       -21.13601
0.988                  0.9940237       -21.25263
0.992                  0.9938105       -21.36931
0.996                  0.9935984       -21.48604
1                      0.9933878       -21.60289
1.004                  0.9931792       -21.71985
1.008                  0.9929729        -21.8369
1.012                  0.9927696       -21.95408
1.016                  0.9925695       -22.07144
1.02                   0.9923731       -22.18893
1.024                  0.9921808       -22.30668
1.028                   0.991993       -22.42462
1.032                  0.9918099       -22.54278
1.036                  0.9916321       -22.66125
1.04                   0.9914598       -22.78004
1.044                  0.9912933       -22.89915
1.048                  0.9911328       -23.01866
1.052                  0.9909786       -23.13851
1.056                  0.9908311       -23.25883
1.06                   0.9906903       -23.37962
1.064                  0.9905564       -23.50092
1.068                  0.9904294       -23.62275
1.072                  0.9903098       -23.74514
1.076                  0.9901974       -23.86819
1.08                   0.9900922       -23.99188
1.084                  0.9899944       -24.11624
1.088                  0.9899038       -24.24137
1.092                  0.9898207       -24.36729
1.096                  0.9897446       -24.49398
1.1                    0.9896757       -24.62156
1.104                  0.9896137          -24.75
1.108                  0.9895584       -24.87942
1.112                  0.9895097       -25.00979
1.116                  0.9894673       -25.14117
1.12                   0.9894309       -25.27366
1.124                  0.9894003       -25.40717
1.128                   0.989375       -25.54185
1.132                  0.9893548       -25.67769
1.136                  0.9893393       -25.81474
1.14                   0.9893279       -25.95302
1.144                  0.9893203       -26.09258
1.148                  0.9893161       -26.23344
1.152                  0.9893147       -26.37565
1.156                  0.9893154       -26.51922
1.16                    0.989318       -26.66419
1.164                  0.9893217       -26.81059
1.168                  0.9893261       -26.95844
1.172                  0.9893304       -27.10776
1.176                  0.9893339       -27.25859
1.18                   0.9893363       -27.41094
1.184                  0.9893367       -27.56483
1.188                  0.9893346       -27.72028
1.192                  0.9893291       -27.87731
1.196                  0.9893198       -28.03592
1.2                    0.9893058       -28.19615
1.204                  0.9892865       -28.35798
1.208                  0.9892613       -28.52144
1.212                  0.9892295       -28.68653
1.216                  0.9891902       -28.85325
1.22                    0.989143       -29.02162
1.224                  0.9890871       -29.19163
1.228                  0.9890218       -29.36329
1.232                  0.9889464       -29.53658
1.236                  0.9888606       -29.71151
1.24                   0.9887633       -29.88808
1.244                  0.9886541       -30.06628
1.248                  0.9885327       -30.24609
1.252                  0.9883979       -30.42751
1.256                  0.9882497       -30.61054
1.26                   0.9880873       -30.79515
1.264                  0.9879102       -30.98134
1.268                   0.987718       -31.16908
1.272                  0.9875101       -31.35838
1.276                  0.9872862        -31.5492
1.28                   0.9870459       -31.74154
1.284                  0.9867887       -31.93537
1.288                  0.9865144       -32.13067
1.292                  0.9862227       -32.32744
1.296                   0.985913       -32.52564
1.3                    0.9855857       -32.72525
1.304                    0.98524       -32.92626
1.308                  0.9848759       -33.12865
1.312                  0.9844932        -33.3324
1.316                   0.984092       -33.53748
1.32                   0.9836722       -33.74388
1.324                  0.9832337       -33.95157
1.328                  0.9827762       -34.16055
1.332                  0.9823002       -34.37077
1.336                  0.9818055       -34.58225
1.34                   0.9812924       -34.79496
1.344                  0.9807609       -35.00887
1.348                  0.9802111       -35.22398
1.352                  0.9796434       -35.44027
1.356                  0.9790579       -35.65773
1.36                    0.978455       -35.87635
1.364                  0.9778347       -36.09614
1.368                  0.9771977       -36.31706
1.372                   0.976544       -36.53913
1.376                  0.9758742       -36.76233
1.38                   0.9751885       -36.98668
1.384                  0.9744876       -37.21216
1.388                  0.9737717       -37.43879
1.392                  0.9730412       -37.66657
1.396                  0.9722968       -37.89551
1.4                    0.9715388       -38.12563
1.404                  0.9707677       -38.35694
1.408                  0.9699841       -38.58944
1.412                  0.9691883       -38.82318
1.416                  0.9683811       -39.05816
1.42                   0.9675627       -39.29442
1.424                  0.9667338       -39.53198
1.428                  0.9658948       -39.77087
1.432                  0.9650462       -40.01115
1.436                  0.9641886       -40.25283
1.44                   0.9633222       -40.49596
1.444                  0.9624478        -40.7406
1.448                  0.9615656       -40.98679
1.452                  0.9606759       -41.23457
1.456                  0.9597793       -41.48401
1.46                   0.9588761       -41.73516
1.464                  0.9579667       -41.98809
1.468                  0.9570513       -42.24286
1.472                  0.9561301       -42.49954
1.476                  0.9552034       -42.75819
1.48                   0.9542713        -43.0189
1.484                  0.9533342       -43.28174
1.488                  0.9523919       -43.54679
1.492                  0.9514445       -43.81414
1.496                  0.9504921       -44.08385
1.5                    0.9495346       -44.35604
1.504                  0.9485718       -44.63077
1.508                  0.9476035       -44.90817
1.512                  0.9466297       -45.18829
1.516                  0.9456499       -45.47127
1.52                   0.9446639       -45.75717
1.524                  0.9436711       -46.04612
1.528                  0.9426712        -46.3382
1.532                  0.9416634       -46.63353
1.536                  0.9406474        -46.9322
1.54                   0.9396223       -47.23434
1.544                  0.9385876       -47.54004
1.548                  0.9375422        -47.8494
1.552                  0.9364856       -48.16254
1.556                  0.9354163       -48.47957
1.56                   0.9343337        -48.8006
1.564                  0.9332367       -49.12573
1.568                  0.9321241       -49.45507
1.572                  0.9309945       -49.78875
1.576                   0.929847       -50.12685
1.58                   0.9286798        -50.4695
1.584                  0.9274919       -50.81679
1.588                  0.9262815       -51.16885
1.592                  0.9250473       -51.52577
1.596                  0.9237877       -51.88766
1.6                     0.922501       -52.25462
1.604                  0.9211855       -52.62677
1.608                  0.9198393       -53.00419
1.612                   0.918461       -53.38698
1.616                  0.9170486       -53.77525
1.62                   0.9155999       -54.16909
1.624                  0.9141133       -54.56861
1.628                  0.9125867       -54.97389
1.632                  0.9110182       -55.38503
1.636                  0.9094058       -55.80211
1.64                   0.9077473       -56.22521
1.644                  0.9060406       -56.65443
1.648                  0.9042835       -57.08987
1.652                  0.9024742       -57.53156
1.656                  0.9006104       -57.97964
1.66                   0.8986897       -58.43416
1.664                  0.8967103       -58.89517
1.668                  0.8946697       -59.36279
1.672                   0.892566       -59.83707
1.676                  0.8903968       -60.31806
1.68                     0.88816       -60.80588
1.684                  0.8858535       -61.30055
1.688                  0.8834751       -61.80214
1.692                  0.8810226       -62.31073
1.696                   0.878494       -62.82638
1.7                    0.8758872       -63.34914
1.704                  0.8732001       -63.87907
1.708                  0.8704307       -64.41623
1.712                  0.8675768       -64.96068
1.716                  0.8646367       -65.51248
1.72                   0.8616084       -66.07167
1.724                    0.85849       -66.63831
1.728                  0.8552797       -67.21246
1.732                  0.8519756       -67.79417
1.736                  0.8485761       -68.38351
1.74                   0.8450795       -68.98049
1.744                  0.8414842       -69.58521
1.748                  0.8377887       -70.19769
1.752                  0.8339914       -70.81802
1.756                   0.830091       -71.44623
1.76                   0.8260861       -72.08238
1.764                  0.8219755       -72.72655
1.768                   0.817758       -73.37878
1.772                  0.8134323       -74.03912
1.776                  0.8089978       -74.70769
1.78                   0.8044532       -75.38449
1.784                  0.7997977       -76.06963
1.788                  0.7950306       -76.76318
1.792                  0.7901512        -77.4652
1.796                   0.785159       -78.17579
1.8                    0.7800535       -78.89503
1.804                  0.7748343         -79.623
1.808                   0.769501       -80.35981
1.812                  0.7640536       -81.10556
1.816                  0.7584919       -81.86035
1.82                    0.752816       -82.62426
1.824                   0.747026       -83.39747
1.828                  0.7411222       -84.18007
1.832                  0.7351049       -84.97221
1.836                  0.7289745       -85.77402
1.84                   0.7227318       -86.58566
1.844                  0.7163774       -87.40731
1.848                   0.709912        -88.2391
1.852                  0.7033368       -89.08125
1.856                  0.6966525       -89.93393
1.86                   0.6898606       -90.79738
1.864                  0.6829623        -91.6718
1.868                   0.675959       -92.55745
1.872                  0.6688523       -93.45454
1.876                  0.6616441       -94.36339
1.88                   0.6543359       -95.28424
1.884                  0.6469298       -96.21743
1.888                   0.639428        -97.1633
1.892                  0.6318328       -98.12215
1.896                  0.6241463        -99.0944
1.9                    0.6163714       -100.0804
1.904                  0.6085106       -101.0806
1.908                  0.6005667       -102.0955
1.912                  0.5925428       -103.1255
1.916                  0.5844421       -104.1712
1.92                   0.5762681       -105.2331
1.924                   0.568024       -106.3117
1.928                  0.5597137       -107.4078
1.932                  0.5513409       -108.5219
1.936                  0.5429099       -109.6549
1.94                   0.5344249       -110.8074
1.944                  0.5258904       -111.9803
1.948                  0.5173111       -113.1745
1.952                  0.5086918       -114.3908
1.956                  0.5000379       -115.6302
1.96                   0.4913546       -116.8939
1.964                  0.4826479       -118.1829
1.968                  0.4739236       -119.4985
1.972                  0.4651878       -120.8419
1.976                  0.4564474       -122.2144
1.98                   0.4477092       -123.6176
1.984                  0.4389804        -125.053
1.988                  0.4302687       -126.5222
1.992                  0.4215823       -128.0269
1.996                  0.4129295        -129.569
2                      0.4043193       -131.1504
2.004                  0.3957611       -132.7732
2.008                   0.387265       -134.4395
2.012                  0.3788412       -136.1517
2.016                   0.370501        -137.912
2.02                   0.3622561       -139.7229
2.024                  0.3541187        -141.587
2.028                  0.3461018       -143.5068
2.032                  0.3382192       -145.4851
2.036                  0.3304855       -147.5244
2.04                   0.3229157       -149.6276
2.044                  0.3155258       -151.7972
2.048                  0.3083326       -154.0357
2.052                  0.3013536       -156.3455
2.056                  0.2946068       -158.7287
2.06                   0.2881113       -161.1871
2.064                  0.2818864       -163.7222
2.068                   0.275952       -166.3348
2.072                  0.2703282       -169.0252
2.076                  0.2650352       -171.7929
2.08                   0.2600933       -174.6364
2.084                   0.255522       -177.5536
2.088                  0.2513403        179.4589
2.092                  0.2475661        176.4058
2.096                  0.2442159        173.2926
2.1                    0.2413041        170.1263
2.104                  0.2388431        166.9148
2.108                  0.2368426        163.6672
2.112                  0.2353095        160.3934
2.116                  0.2342473        157.1039
2.12                   0.2336565        153.8096
2.124                   0.233534        150.5218
2.128                  0.2338734        147.2514
2.132                  0.2346653        144.0091
2.136                  0.2358969        140.8049
2.14                   0.2375532        137.6479
2.144                  0.2396164        134.5463
2.148                  0.2420672        131.5071
2.152                  0.2448846        128.5363
2.156                  0.2480463        125.6384
2.16                   0.2515299        122.8171
2.164                   0.255312        120.0748
2.168                  0.2593697         117.413
2.172                  0.2636799        114.8323
2.176                  0.2682205        112.3326
2.18                   0.2729696         109.913
2.184                  0.2779064        107.5723
2.188                  0.2830108        105.3087
2.192                   0.288264        103.1201
2.196                  0.2936477        101.0042
2.2                    0.2991452        98.95852
2.204                  0.3047402         96.9804
2.208                  0.3104181         95.0672
2.212                  0.3161647        93.21623
2.216                   0.321967        91.42485
2.22                    0.327813        89.69042
2.224                  0.3336912        88.01041
2.228                  0.3395913        86.38234
2.232                  0.3455035        84.80386
2.236                   0.351419        83.27269
2.24                   0.3573293        81.78663
2.244                  0.3632269        80.34366
2.248                  0.3691046        78.94179
2.252                  0.3749562        77.57917
2.256                  0.3807754        76.25407
2.26                    0.386557        74.96481
2.264                  0.3922958        73.70984
2.268                  0.3979874        72.48771
2.272                  0.4036276        71.29702
2.276                  0.4092126        70.13649
2.28                    0.414739        69.00489
2.284                  0.4202036        67.90108
2.288                  0.4256038        66.82398
2.292                  0.4309371        65.77257
2.296                  0.4362013        64.74594
2.3                    0.4413945        63.74315
2.304                  0.4465151        62.76338
2.308                  0.4515617        61.80583
2.312                   0.456533        60.86978
2.316                  0.4614282        59.95451
2.32                   0.4662465        59.05934
2.324                  0.4709873        58.18369
2.328                    0.47565        57.32696
2.332                  0.4802349        56.48857
2.336                  0.4847416          55.668
2.34                   0.4891704        54.86477
2.344                  0.4935214         54.0784
2.348                   0.497795        53.30843
2.352                  0.5019921        52.55444