! TOUCHSTONE file generated by CST MICROWAVE STUDIO
! Date and time: Sat May 14 11:42:11 2022
! Project name: AppElm_antenne_dipole_Alumina.cst
! Parameters = {L=26.4; e=0.035; f=2.45e+09; h=1.6; i=0.8; l1=2; lambda=122.449; ls=30; wl=1.7; ws=80}
! Header version: 2018
! Port assignment regex: !\s*Touchstone port\s*([0-9]+)\s*=\s*(CST MWS port|CST DS port)\s*([0-9]+|Zmin|Zmax)\s*\(\"(.*)\"\)(\s*mode\s*([0-9]+))?.*
! Touchstone port assignment:
! Touchstone port 1 = CST MWS port 1 ("")
# GHz S MA R 50
0                      0.9982885              -0
0.004                   0.998289     -0.05856135
0.008                   0.998291      -0.1171262
0.012                  0.9982943      -0.1756981
0.016                  0.9982989      -0.2342804
0.02                   0.9983049      -0.2928766
0.024                  0.9983122      -0.3514902
0.028                  0.9983207      -0.4101247
0.032                  0.9983305      -0.4687833
0.036                  0.9983415      -0.5274695
0.04                   0.9983538      -0.5861866
0.044                  0.9983674       -0.644938
0.048                   0.998382      -0.7037268
0.052                  0.9983979      -0.7625563
0.056                  0.9984151      -0.8214296
0.06                   0.9984332      -0.8803497
0.064                  0.9984525      -0.9393198
0.068                   0.998473      -0.9983429
0.072                  0.9984943       -1.057422
0.076                  0.9985168       -1.116559
0.08                   0.9985402       -1.175758
0.084                  0.9985646       -1.235021
0.088                  0.9985897        -1.29435
0.092                  0.9986159       -1.353749
0.096                  0.9986428       -1.413219
0.1                    0.9986706       -1.472764
0.104                   0.998699       -1.532384
0.108                  0.9987281       -1.592083
0.112                  0.9987579       -1.651862
0.116                  0.9987883       -1.711723
0.12                   0.9988192       -1.771669
0.124                  0.9988507         -1.8317
0.128                  0.9988827        -1.89182
0.132                   0.998915       -1.952028
0.136                  0.9989477       -2.012326
0.14                   0.9989807       -2.072716
0.144                  0.9990139         -2.1332
0.148                  0.9990475       -2.193777
0.152                  0.9990811       -2.254449
0.156                  0.9991149       -2.315217
0.16                   0.9991486       -2.376082
0.164                  0.9991824       -2.437044
0.168                  0.9992162       -2.498103
0.172                  0.9992498       -2.559261
0.176                  0.9992833       -2.620517
0.18                   0.9993167       -2.681871
0.184                  0.9993496       -2.743325
0.188                  0.9993823       -2.804876
0.192                  0.9994146       -2.866526
0.196                  0.9994466       -2.928274
0.2                     0.999478       -2.990119
0.204                   0.999509       -3.052061
0.208                  0.9995394         -3.1141
0.212                  0.9995691       -3.176234
0.216                  0.9995982       -3.238464
0.22                   0.9996267       -3.300787
0.224                  0.9996543       -3.363203
0.228                  0.9996811       -3.425711
0.232                  0.9997072       -3.488309
0.236                  0.9997323       -3.550996
0.24                   0.9997565       -3.613772
0.244                  0.9997798       -3.676633
0.248                  0.9998021       -3.739579
0.252                  0.9998234       -3.802608
0.256                  0.9998435       -3.865718
0.26                   0.9998626       -3.928908
0.264                  0.9998806       -3.992175
0.268                  0.9998974       -4.055517
0.272                   0.999913       -4.118933
0.276                  0.9999274       -4.182421
0.28                   0.9999406       -4.245977
0.284                  0.9999524       -4.309602
0.288                  0.9999631        -4.37329
0.292                  0.9999723       -4.437041
0.296                  0.9999803       -4.500853
0.3                     0.999987       -4.564722
0.304                  0.9999922       -4.628646
0.308                  0.9999961       -4.692625
0.312                  0.9999987       -4.756653
0.316                  0.9999999       -4.820729
0.32                   0.9999997        -4.88485
0.324                  0.9999981       -4.949016
0.328                  0.9999952       -5.013221
0.332                  0.9999909       -5.077465
0.336                   0.999985       -5.141745
0.34                    0.999978       -5.206058
0.344                  0.9999696       -5.270401
0.348                  0.9999597       -5.334773
0.352                  0.9999485        -5.39917
0.356                   0.999936       -5.463591
0.36                   0.9999222       -5.528033
0.364                   0.999907       -5.592495
0.368                  0.9998906       -5.656972
0.372                  0.9998729       -5.721463
0.376                   0.999854       -5.785967
0.38                   0.9998338       -5.850481
0.384                  0.9998125       -5.915002
0.388                  0.9997901        -5.97953
0.392                  0.9997664        -6.04406
0.396                  0.9997418       -6.108593
0.4                     0.999716       -6.173127
0.404                  0.9996892       -6.237658
0.408                  0.9996613       -6.302187
0.412                  0.9996326        -6.36671
0.416                   0.999603       -6.431228
0.42                   0.9995725       -6.495737
0.424                  0.9995412       -6.560238
0.428                  0.9995091       -6.624729
0.432                  0.9994762       -6.689208
0.436                  0.9994427       -6.753674
0.44                   0.9994084       -6.818129
0.444                  0.9993737       -6.882569
0.448                  0.9993383       -6.946995
0.452                  0.9993026       -7.011405
0.456                  0.9992664       -7.075801
0.46                   0.9992297       -7.140179
0.464                  0.9991927       -7.204543
0.468                  0.9991555       -7.268889
0.472                  0.9991181        -7.33322
0.476                  0.9990803       -7.397535
0.48                   0.9990425       -7.461834
0.484                  0.9990048       -7.526119
0.488                  0.9989669       -7.590388
0.492                  0.9989291       -7.654644
0.496                  0.9988914       -7.718887
0.5                    0.9988538       -7.783118
0.504                  0.9988165       -7.847336
0.508                  0.9987794       -7.911545
0.512                  0.9987427       -7.975746
0.516                  0.9987062        -8.03994
0.52                   0.9986703       -8.104126
0.524                  0.9986349       -8.168311
0.528                  0.9985999       -8.232491
0.532                  0.9985656       -8.296672
0.536                  0.9985319       -8.360855
0.54                   0.9984987       -8.425042
0.544                  0.9984665       -8.489235
0.548                  0.9984349       -8.553437
0.552                  0.9984042       -8.617651
0.556                  0.9983744       -8.681877
0.56                   0.9983455        -8.74612
0.564                  0.9983176       -8.810384
0.568                  0.9982905       -8.874669
0.572                  0.9982647       -8.938979
0.576                  0.9982398       -9.003318
0.58                   0.9982162       -9.067687
0.584                  0.9981936       -9.132093
0.588                  0.9981721       -9.196538
0.592                  0.9981519       -9.261023
0.596                   0.998133       -9.325554
0.6                    0.9981155       -9.390134
0.604                   0.998099       -9.454768
0.608                  0.9980839       -9.519458
0.612                  0.9980703       -9.584209
0.616                  0.9980579       -9.649023
0.62                    0.998047       -9.713907
0.624                  0.9980373       -9.778862
0.628                  0.9980292       -9.843893
0.632                  0.9980224       -9.909005
0.636                  0.9980171       -9.974202
0.64                   0.9980132       -10.03949
0.644                  0.9980107       -10.10486
0.648                  0.9980098       -10.17034
0.652                  0.9980101       -10.23591
0.656                  0.9980121        -10.3016
0.66                   0.9980154       -10.36739
0.664                    0.99802       -10.43329
0.668                  0.9980261       -10.49931
0.672                  0.9980337       -10.56546
0.676                  0.9980425       -10.63173
0.68                   0.9980529       -10.69813
0.684                  0.9980644       -10.76467
0.688                  0.9980774       -10.83134
0.692                  0.9980916       -10.89816
0.696                  0.9981072       -10.96512
0.7                    0.9981241       -11.03223
0.704                  0.9981421        -11.0995
0.708                  0.9981612       -11.16693
0.712                  0.9981816       -11.23452
0.716                  0.9982031       -11.30227
0.72                   0.9982257        -11.3702
0.724                  0.9982493        -11.4383
0.728                  0.9982739       -11.50657
0.732                  0.9982994       -11.57502
0.736                  0.9983259       -11.64366
0.74                   0.9983533       -11.71249
0.744                  0.9983814        -11.7815
0.748                  0.9984103       -11.85071
0.752                  0.9984399       -11.92011
0.756                  0.9984703       -11.98971
0.76                   0.9985011       -12.05951
0.764                  0.9985326       -12.12951
0.768                  0.9985645       -12.19973
0.772                  0.9985969       -12.27015
0.776                  0.9986296       -12.34078
0.78                   0.9986626       -12.41162
0.784                  0.9986959       -12.48268
0.788                  0.9987294       -12.55396
0.792                   0.998763       -12.62545
0.796                  0.9987967       -12.69717
0.8                    0.9988303       -12.76911
0.804                   0.998864       -12.84127
0.808                  0.9988974       -12.91365
0.812                  0.9989306       -12.98627
0.816                  0.9989637        -13.0591
0.82                   0.9989963       -13.13217
0.824                  0.9990287       -13.20546
0.828                  0.9990604       -13.27899
0.832                  0.9990917       -13.35274
0.836                  0.9991225       -13.42672
0.84                   0.9991525       -13.50093
0.844                  0.9991818       -13.57537
0.848                  0.9992104       -13.65004
0.852                  0.9992382       -13.72494
0.856                   0.999265       -13.80007
0.86                   0.9992907       -13.87543
0.864                  0.9993156       -13.95101
0.868                  0.9993393       -14.02682
0.872                  0.9993619       -14.10286
0.876                  0.9993833       -14.17912
0.88                   0.9994035       -14.25561
0.884                  0.9994223       -14.33232
0.888                  0.9994398       -14.40925
0.892                  0.9994558        -14.4864
0.896                  0.9994704       -14.56378
0.9                    0.9994834       -14.64137
0.904                  0.9994949       -14.71917
0.908                  0.9995048       -14.79719
0.912                  0.9995132       -14.87542
0.916                  0.9995198       -14.95386
0.92                   0.9995246        -15.0325
0.924                  0.9995277       -15.11136
0.928                  0.9995291       -15.19041
0.932                  0.9995285       -15.26967
0.936                  0.9995262       -15.34913
0.94                    0.999522       -15.42878
0.944                  0.9995158       -15.50863
0.948                  0.9995079       -15.58867
0.952                  0.9994978        -15.6689
0.956                  0.9994858       -15.74932
0.96                   0.9994719       -15.82992
0.964                  0.9994559       -15.91069
0.968                   0.999438       -15.99165
0.972                   0.999418       -16.07279
0.976                  0.9993961        -16.1541
0.98                   0.9993721       -16.23558
0.984                  0.9993461       -16.31723
0.988                  0.9993181       -16.39904
0.992                  0.9992881       -16.48102
0.996                  0.9992562       -16.56315
1                      0.9992222       -16.64545
1.004                  0.9991862        -16.7279
1.008                  0.9991482        -16.8105
1.012                  0.9991084       -16.89326
1.016                  0.9990666       -16.97616
1.02                   0.9990231       -17.05921
1.024                  0.9989777        -17.1424
1.028                  0.9989302       -17.22575
1.032                  0.9988811       -17.30922
1.036                  0.9988303       -17.39282
1.04                   0.9987775       -17.47656
1.044                  0.9987231       -17.56046
1.048                  0.9986672       -17.64447
1.052                  0.9986096       -17.72862
1.056                  0.9985505       -17.81288
1.06                   0.9984897       -17.89727
1.064                  0.9984277       -17.98177
1.068                   0.998364       -18.06644
1.072                  0.9982991       -18.15122
1.076                  0.9982328       -18.23613
1.08                   0.9981654       -18.32112
1.084                  0.9980967       -18.40628
1.088                  0.9980268       -18.49153
1.092                   0.997956        -18.5769
1.096                  0.9978841       -18.66242
1.1                    0.9978112       -18.74801
1.104                  0.9977375       -18.83377
1.108                  0.9976629       -18.91964
1.112                  0.9975877       -19.00562
1.116                  0.9975117       -19.09173
1.12                   0.9974352       -19.17799
1.124                  0.9973581       -19.26432
1.128                  0.9972804        -19.3508
1.132                  0.9972024       -19.43741
1.136                  0.9971241       -19.52415
1.14                   0.9970455       -19.61101
1.144                  0.9969668       -19.69801
1.148                   0.996888       -19.78514
1.152                  0.9968091       -19.87241
1.156                  0.9967302       -19.95982
1.16                   0.9966514       -20.04737
1.164                  0.9965728       -20.13506
1.168                  0.9964945        -20.2229
1.172                  0.9964164       -20.31089
1.176                  0.9963387       -20.39904
1.18                   0.9962615       -20.48734
1.184                  0.9961848        -20.5758
1.188                  0.9961086       -20.66444
1.192                  0.9960332       -20.75323
1.196                  0.9959583       -20.84221
1.2                    0.9958843       -20.93136
1.204                  0.9958111        -21.0207
1.208                  0.9957386       -21.11022
1.212                  0.9956672       -21.19994
1.216                  0.9955968       -21.28985
1.22                   0.9955274       -21.37997
1.224                  0.9954591        -21.4703
1.228                  0.9953919       -21.56085
1.232                   0.995326       -21.65161
1.236                  0.9952612       -21.74261
1.24                   0.9951978       -21.83383
1.244                  0.9951355        -21.9253
1.248                  0.9950747         -22.017
1.252                  0.9950151       -22.10897
1.256                  0.9949571       -22.20119
1.26                   0.9949003       -22.29367
1.264                  0.9948451       -22.38643
1.268                  0.9947913       -22.47947
1.272                  0.9947389       -22.57279
1.276                  0.9946882       -22.66641
1.28                   0.9946389       -22.76033
1.284                  0.9945911       -22.85456
1.288                  0.9945447        -22.9491
1.292                     0.9945       -23.04397
1.296                  0.9944567       -23.13916
1.3                     0.994415        -23.2347
1.304                  0.9943748       -23.33058
1.308                  0.9943359       -23.42682
1.312                  0.9942986       -23.52341
1.316                  0.9942627       -23.62037
1.32                   0.9942283       -23.71771
1.324                  0.9941951       -23.81544
1.328                  0.9941635       -23.91355
1.332                   0.994133       -24.01207
1.336                  0.9941038         -24.111
1.34                    0.994076       -24.21034
1.344                  0.9940492        -24.3101
1.348                  0.9940237       -24.41029
1.352                  0.9939992       -24.51092
1.356                  0.9939758         -24.612
1.36                   0.9939533       -24.71353
1.364                  0.9939317       -24.81552
1.368                   0.993911       -24.91798
1.372                   0.993891       -25.02091
1.376                  0.9938717       -25.12433
1.38                   0.9938531       -25.22823
1.384                  0.9938349       -25.33263
1.388                  0.9938174       -25.43753
1.392                     0.9938       -25.54295
1.396                  0.9937832       -25.64887
1.4                    0.9937663       -25.75533
1.404                  0.9937495       -25.86231
1.408                  0.9937329       -25.96983
1.412                  0.9937162       -26.07789
1.416                  0.9936993       -26.18649
1.42                   0.9936819       -26.29566
1.424                  0.9936643       -26.40538
1.428                  0.9936462       -26.51566
1.432                  0.9936274       -26.62652
1.436                  0.9936079       -26.73795
1.44                   0.9935875       -26.84996
1.444                  0.9935662       -26.96256
1.448                  0.9935438       -27.07575
1.452                  0.9935203       -27.18953
1.456                  0.9934954       -27.30391
1.46                   0.9934691       -27.41889
1.464                  0.9934413       -27.53448
1.468                  0.9934118       -27.65068
1.472                  0.9933805       -27.76749
1.476                  0.9933474       -27.88493
1.48                   0.9933121       -28.00298
1.484                  0.9932747       -28.12166
1.488                  0.9932351       -28.24097
1.492                  0.9931931        -28.3609
1.496                  0.9931485       -28.48147
1.5                    0.9931013       -28.60267
1.504                  0.9930513       -28.72451
1.508                  0.9929985       -28.84698
1.512                  0.9929428        -28.9701
1.516                  0.9928838       -29.09385
1.52                   0.9928215       -29.21826
1.524                   0.992756       -29.34331
1.528                   0.992687         -29.469
1.532                  0.9926145       -29.59533
1.536                  0.9925383       -29.72232
1.54                   0.9924582       -29.84995
1.544                  0.9923742       -29.97823
1.548                  0.9922862       -30.10717
1.552                  0.9921942       -30.23674
1.556                  0.9920978       -30.36697
1.56                   0.9919972       -30.49785
1.564                  0.9918922       -30.62937
1.568                  0.9917827       -30.76155
1.572                  0.9916685       -30.89437
1.576                  0.9915497       -31.02784
1.58                   0.9914261       -31.16195
1.584                  0.9912978       -31.29672
1.588                  0.9911644       -31.43213
1.592                   0.991026       -31.56818
1.596                  0.9908826       -31.70488
1.6                     0.990734       -31.84221
1.604                  0.9905802       -31.98019
1.608                  0.9904211       -32.11881
1.612                  0.9902568       -32.25806
1.616                  0.9900871       -32.39796
1.62                   0.9899119        -32.5385
1.624                  0.9897312       -32.67966
1.628                  0.9895451       -32.82147
1.632                  0.9893533       -32.96391
1.636                   0.989156       -33.10698
1.64                    0.988953       -33.25068
1.644                  0.9887443       -33.39501
1.648                    0.98853       -33.53997
1.652                  0.9883101       -33.68556
1.656                  0.9880845       -33.83178
1.66                   0.9878529       -33.97863
1.664                  0.9876158        -34.1261
1.668                   0.987373        -34.2742
1.672                  0.9871243       -34.42292
1.676                    0.98687       -34.57227
1.68                     0.98661       -34.72224
1.684                  0.9863441       -34.87285
1.688                  0.9860726       -35.02407
1.692                  0.9857955       -35.17592
1.696                  0.9855126       -35.32841
1.7                    0.9852242       -35.48151
1.704                  0.9849301       -35.63525
1.708                  0.9846306       -35.78961
1.712                  0.9843254       -35.94461
1.716                  0.9840148       -36.10024
1.72                   0.9836987       -36.25651
1.724                  0.9833772       -36.41341
1.728                  0.9830504       -36.57095
1.732                  0.9827183       -36.72913
1.736                  0.9823808       -36.88796
1.74                   0.9820381       -37.04744
1.744                  0.9816904       -37.20757
1.748                  0.9813376       -37.36836
1.752                  0.9809797        -37.5298
1.756                  0.9806169       -37.69191
1.76                   0.9802493       -37.85469
1.764                  0.9798767       -38.01815
1.768                  0.9794993       -38.18229
1.772                  0.9791174       -38.34712
1.776                  0.9787308       -38.51263
1.78                   0.9783397       -38.67885
1.784                  0.9779439       -38.84578
1.788                  0.9775438       -39.01342
1.792                  0.9771394       -39.18178
1.796                  0.9767308       -39.35087
1.8                    0.9763178       -39.52071
1.804                  0.9759007        -39.6913
1.808                  0.9754796       -39.86264
1.812                  0.9750545       -40.03475
1.816                  0.9746255       -40.20764
1.82                   0.9741925       -40.38133
1.824                  0.9737557       -40.55581
1.828                  0.9733153        -40.7311
1.832                   0.972871       -40.90723
1.836                  0.9724232       -41.08418
1.84                   0.9719718         -41.262
1.844                  0.9715168       -41.44068
1.848                  0.9710583       -41.62023
1.852                  0.9705963       -41.80068
1.856                  0.9701311       -41.98204
1.86                   0.9696622       -42.16432
1.864                  0.9691903       -42.34753
1.868                  0.9687149       -42.53171
1.872                  0.9682362       -42.71685
1.876                  0.9677543       -42.90298
1.88                    0.967269       -43.09013
1.884                  0.9667805       -43.27829
1.888                  0.9662887       -43.46749
1.892                  0.9657938       -43.65776
1.896                  0.9652955        -43.8491
1.9                    0.9647938       -44.04154
1.904                  0.9642889        -44.2351
1.908                  0.9637806       -44.42981
1.912                   0.963269       -44.62568
1.916                  0.9627539       -44.82271
1.92                   0.9622353       -45.02095
1.924                  0.9617133       -45.22043
1.928                  0.9611874       -45.42115
1.932                   0.960658       -45.62313
1.936                  0.9601248        -45.8264
1.94                   0.9595877       -46.03099
1.944                  0.9590467       -46.23692
1.948                  0.9585017        -46.4442
1.952                  0.9579523       -46.65287
1.956                  0.9573989       -46.86295
1.96                   0.9568409       -47.07446
1.964                  0.9562781       -47.28744
1.968                  0.9557108        -47.5019
1.972                  0.9551386       -47.71785
1.976                  0.9545614       -47.93534
1.98                   0.9539789        -48.1544
1.984                  0.9533908       -48.37504
1.988                  0.9527972       -48.59729
1.992                  0.9521979       -48.82118
1.996                  0.9515924       -49.04672
2                      0.9509807       -49.27395
2.004                  0.9503624       -49.50291
2.008                  0.9497374        -49.7336
2.012                  0.9491054       -49.96606
2.016                  0.9484661       -50.20032
2.02                   0.9478193       -50.43639
2.024                  0.9471645       -50.67432
2.028                  0.9465018       -50.91412
2.032                  0.9458305       -51.15583
2.036                  0.9451506       -51.39946
2.04                   0.9444616       -51.64505
2.044                  0.9437633       -51.89262
2.048                  0.9430551        -52.1422
2.052                  0.9423371       -52.39381
2.056                  0.9416085       -52.64749
2.06                   0.9408692       -52.90327
2.064                  0.9401187       -53.16115
2.068                  0.9393566       -53.42118
2.072                  0.9385826       -53.68338
2.076                  0.9377965       -53.94777
2.08                   0.9369974       -54.21438
2.084                  0.9361854       -54.48325
2.088                  0.9353597       -54.75438
2.092                  0.9345201       -55.02781
2.096                  0.9336662       -55.30357
2.1                    0.9327972       -55.58168
2.104                  0.9319131       -55.86217
2.108                  0.9310132       -56.14505
2.112                  0.9300972       -56.43036
2.116                  0.9291644       -56.71812
2.12                   0.9282145       -57.00836
2.124                   0.927247        -57.3011
2.128                  0.9262615       -57.59635
2.132                  0.9252573       -57.89416
2.136                  0.9242341       -58.19453
2.14                   0.9231913       -58.49751
2.144                  0.9221285        -58.8031
2.148                  0.9210453       -59.11133
2.152                  0.9199409       -59.42222
2.156                  0.9188149        -59.7358
2.16                   0.9176669        -60.0521
2.164                  0.9164963       -60.37112
2.168                  0.9153029       -60.69288
2.172                  0.9140856       -61.01743
2.176                  0.9128443       -61.34478
2.18                   0.9115784       -61.67494
2.184                  0.9102874       -62.00794
2.188                  0.9089707        -62.3438
2.192                  0.9076278       -62.68254
2.196                  0.9062583       -63.02418
2.2                    0.9048616       -63.36874
2.204                  0.9034373       -63.71625
2.208                  0.9019846       -64.06672
2.212                  0.9005034       -64.42015
2.216                  0.8989929       -64.77659
2.22                   0.8974527       -65.13607
2.224                  0.8958822       -65.49857
2.228                  0.8942811       -65.86414
2.232                  0.8926489       -66.23278
2.236                  0.8909848       -66.60451
2.24                   0.8892887       -66.97936
2.244                  0.8875599       -67.35735
2.248                   0.885798       -67.73849
2.252                  0.8840025       -68.12281
2.256                   0.882173        -68.5103
2.26                    0.880309       -68.90102
2.264                  0.8784102       -69.29496
2.268                  0.8764758       -69.69214
2.272                  0.8745058       -70.09259
2.276                  0.8724994       -70.49633
2.28                   0.8704567       -70.90336
2.284                  0.8683766       -71.31371
2.288                  0.8662593        -71.7274
2.292                  0.8641041       -72.14446
2.296                  0.8619107       -72.56488
2.3                    0.8596787       -72.98871
2.304                  0.8574079       -73.41595
2.308                  0.8550977       -73.84662
2.312                   0.852748       -74.28075
2.316                  0.8503583       -74.71834
2.32                   0.8479285       -75.15945
2.324                  0.8454581       -75.60406
2.328                  0.8429469        -76.0522
2.332                  0.8403946       -76.50391
2.336                   0.837801       -76.95919
2.34                   0.8351658       -77.41807
2.344                  0.8324886       -77.88057
2.348                  0.8297695       -78.34672
2.352                  0.8270082       -78.81654