! TOUCHSTONE file generated by CST MICROWAVE STUDIO
! Date and time: Sat May 14 11:42:10 2022
! Project name: AppElm_antenne_dipole_Alumina.cst
! Parameters = {L=24.75; e=0.035; f=2.45e+09; h=1.6; i=0.8; l1=2; lambda=122.449; ls=30; wl=1.7; ws=80}
! Header version: 2018
! Port assignment regex: !\s*Touchstone port\s*([0-9]+)\s*=\s*(CST MWS port|CST DS port)\s*([0-9]+|Zmin|Zmax)\s*\(\"(.*)\"\)(\s*mode\s*([0-9]+))?.*
! Touchstone port assignment:
! Touchstone port 1 = CST MWS port 1 ("")
# GHz S MA R 50
0                      0.9990363              -0
0.004                  0.9990366      -0.0578101
0.008                  0.9990378      -0.1156222
0.012                  0.9990395      -0.1734384
0.016                   0.999042      -0.2312606
0.02                   0.9990452      -0.2890909
0.024                  0.9990491      -0.3469313
0.028                  0.9990537      -0.4047837
0.032                   0.999059      -0.4626502
0.036                  0.9990648      -0.5205327
0.04                   0.9990715      -0.5784331
0.044                  0.9990788      -0.6363534
0.048                  0.9990867      -0.6942955
0.052                  0.9990952      -0.7522613
0.056                  0.9991046      -0.8102524
0.06                   0.9991144       -0.868271
0.064                  0.9991247      -0.9263188
0.068                  0.9991357      -0.9843974
0.072                  0.9991473       -1.042509
0.076                  0.9991595       -1.100654
0.08                   0.9991721       -1.158836
0.084                  0.9991854       -1.217055
0.088                  0.9991989       -1.275313
0.092                  0.9992131       -1.333612
0.096                  0.9992276       -1.391954
0.1                    0.9992427       -1.450339
0.104                  0.9992582       -1.508768
0.108                   0.999274       -1.567245
0.112                  0.9992903       -1.625769
0.116                  0.9993068       -1.684342
0.12                   0.9993235       -1.742966
0.124                  0.9993407        -1.80164
0.128                  0.9993582       -1.860368
0.132                  0.9993758       -1.919148
0.136                  0.9993937       -1.977983
0.14                   0.9994117       -2.036874
0.144                  0.9994301       -2.095821
0.148                  0.9994485       -2.154824
0.152                  0.9994669       -2.213886
0.156                  0.9994855       -2.273007
0.16                   0.9995041       -2.332186
0.164                  0.9995227       -2.391426
0.168                  0.9995413       -2.450726
0.172                    0.99956       -2.510087
0.176                  0.9995785       -2.569509
0.18                    0.999597       -2.628992
0.184                  0.9996153       -2.688537
0.188                  0.9996335       -2.748145
0.192                  0.9996516       -2.807815
0.196                  0.9996694       -2.867547
0.2                    0.9996871       -2.927341
0.204                  0.9997045       -2.987199
0.208                  0.9997216       -3.047118
0.212                  0.9997384         -3.1071
0.216                  0.9997548       -3.167144
0.22                   0.9997711        -3.22725
0.224                  0.9997869       -3.287417
0.228                  0.9998022       -3.347646
0.232                  0.9998171       -3.407937
0.236                  0.9998316       -3.468287
0.24                   0.9998456       -3.528697
0.244                  0.9998592       -3.589167
0.248                  0.9998722       -3.649696
0.252                  0.9998848       -3.710283
0.256                  0.9998967       -3.770928
0.26                    0.999908        -3.83163
0.264                  0.9999189       -3.892389
0.268                   0.999929       -3.953202
0.272                  0.9999386       -4.014071
0.276                  0.9999474       -4.074993
0.28                   0.9999558       -4.135969
0.284                  0.9999633       -4.196996
0.288                  0.9999702       -4.258075
0.292                  0.9999763       -4.319204
0.296                  0.9999819       -4.380381
0.3                    0.9999868       -4.441607
0.304                  0.9999907       -4.502881
0.308                  0.9999941         -4.5642
0.312                  0.9999966       -4.625565
0.316                  0.9999985       -4.686973
0.32                   0.9999996       -4.748424
0.324                          1       -4.809917
0.328                  0.9999995        -4.87145
0.332                  0.9999984       -4.933023
0.336                  0.9999964       -4.994634
0.34                   0.9999936       -5.056283
0.344                  0.9999902       -5.117968
0.348                  0.9999859       -5.179688
0.352                  0.9999808       -5.241442
0.356                  0.9999752       -5.303228
0.36                   0.9999686       -5.365046
0.364                  0.9999613       -5.426896
0.368                  0.9999534       -5.488774
0.372                  0.9999448       -5.550681
0.376                  0.9999354       -5.612616
0.38                   0.9999253       -5.674577
0.384                  0.9999144       -5.736564
0.388                  0.9999028       -5.798575
0.392                  0.9998907       -5.860611
0.396                   0.999878       -5.922668
0.4                    0.9998644       -5.984749
0.404                  0.9998504        -6.04685
0.408                  0.9998357       -6.108971
0.412                  0.9998204       -6.171111
0.416                  0.9998047       -6.233271
0.42                   0.9997884       -6.295449
0.424                  0.9997714       -6.357645
0.428                  0.9997541       -6.419857
0.432                  0.9997361       -6.482087
0.436                  0.9997178       -6.544332
0.44                    0.999699       -6.606592
0.444                  0.9996799       -6.668868
0.448                  0.9996602        -6.73116
0.452                  0.9996403       -6.793465
0.456                  0.9996201       -6.855784
0.46                   0.9995995       -6.918119
0.464                  0.9995786       -6.980468
0.468                  0.9995575        -7.04283
0.472                  0.9995361       -7.105207
0.476                  0.9995146       -7.167599
0.48                   0.9994928       -7.230005
0.484                   0.999471       -7.292425
0.488                  0.9994489       -7.354861
0.492                  0.9994269       -7.417312
0.496                  0.9994049       -7.479778
0.5                    0.9993827       -7.542261
0.504                  0.9993605       -7.604761
0.508                  0.9993384       -7.667278
0.512                  0.9993164       -7.729814
0.516                  0.9992945       -7.792368
0.52                   0.9992726       -7.854943
0.524                   0.999251       -7.917537
0.528                  0.9992294       -7.980152
0.532                  0.9992082       -8.042791
0.536                  0.9991871       -8.105456
0.54                   0.9991664       -8.168143
0.544                  0.9991459       -8.230857
0.548                  0.9991257       -8.293598
0.552                  0.9991058       -8.356366
0.556                  0.9990864       -8.419166
0.56                   0.9990674       -8.481999
0.564                  0.9990488       -8.544864
0.568                  0.9990306       -8.607764
0.572                  0.9990129         -8.6707
0.576                  0.9989957       -8.733675
0.58                    0.998979       -8.796689
0.584                   0.998963       -8.859745
0.588                  0.9989475       -8.922844
0.592                  0.9989325        -8.98599
0.596                  0.9989181       -9.049182
0.6                    0.9989044       -9.112426
0.604                  0.9988913       -9.175721
0.608                  0.9988789       -9.239069
0.612                  0.9988672       -9.302473
0.616                  0.9988561       -9.365936
0.62                   0.9988458        -9.42946
0.624                  0.9988361       -9.493046
0.628                  0.9988273       -9.556697
0.632                  0.9988192       -9.620416
0.636                  0.9988118       -9.684206
0.64                   0.9988052       -9.748067
0.644                  0.9987994       -9.812003
0.648                  0.9987943       -9.876017
0.652                  0.9987899        -9.94011
0.656                  0.9987865       -10.00428
0.66                   0.9987837       -10.06855
0.664                  0.9987818       -10.13289
0.668                  0.9987807       -10.19733
0.672                  0.9987803       -10.26186
0.676                  0.9987808       -10.32649
0.68                   0.9987821       -10.39121
0.684                   0.998784       -10.45603
0.688                  0.9987868       -10.52096
0.692                  0.9987904       -10.58599
0.696                  0.9987948       -10.65113
0.7                    0.9987999       -10.71638
0.704                  0.9988057       -10.78174
0.708                  0.9988121       -10.84722
0.712                  0.9988193       -10.91282
0.716                  0.9988273       -10.97854
0.72                    0.998836       -11.04438
0.724                  0.9988454       -11.11034
0.728                  0.9988553       -11.17644
0.732                  0.9988659       -11.24266
0.736                  0.9988772       -11.30902
0.74                    0.998889       -11.37551
0.744                  0.9989014       -11.44214
0.748                  0.9989143       -11.50891
0.752                  0.9989277       -11.57582
0.756                  0.9989416       -11.64288
0.76                   0.9989561       -11.71007
0.764                   0.998971       -11.77743
0.768                  0.9989863       -11.84493
0.772                   0.999002       -11.91258
0.776                   0.999018       -11.98038
0.78                   0.9990343       -12.04834
0.784                   0.999051       -12.11646
0.788                  0.9990679       -12.18474
0.792                  0.9990851       -12.25318
0.796                  0.9991024       -12.32179
0.8                    0.9991199       -12.39055
0.804                  0.9991376       -12.45949
0.808                  0.9991553       -12.52859
0.812                  0.9991732       -12.59786
0.816                   0.999191        -12.6673
0.82                   0.9992088       -12.73691
0.824                  0.9992266        -12.8067
0.828                  0.9992443       -12.87665
0.832                  0.9992619       -12.94679
0.836                  0.9992793        -13.0171
0.84                   0.9992965       -13.08758
0.844                  0.9993134       -13.15824
0.848                  0.9993302       -13.22908
0.852                  0.9993467        -13.3001
0.856                  0.9993627        -13.3713
0.86                   0.9993784       -13.44268
0.864                  0.9993937       -13.51424
0.868                  0.9994085       -13.58598
0.872                  0.9994228        -13.6579
0.876                  0.9994366          -13.73
0.88                   0.9994498       -13.80229
0.884                  0.9994624       -13.87475
0.888                  0.9994744        -13.9474
0.892                  0.9994857       -14.02023
0.896                  0.9994963       -14.09324
0.9                    0.9995062       -14.16644
0.904                  0.9995153       -14.23981
0.908                  0.9995236       -14.31337
0.912                  0.9995311        -14.3871
0.916                  0.9995377       -14.46102
0.92                   0.9995434       -14.53512
0.924                  0.9995482       -14.60939
0.928                  0.9995521       -14.68385
0.932                   0.999555       -14.75848
0.936                  0.9995568       -14.83329
0.94                   0.9995576       -14.90828
0.944                  0.9995573       -14.98345
0.948                  0.9995561       -15.05879
0.952                  0.9995537        -15.1343
0.956                    0.99955       -15.20999
0.96                   0.9995454       -15.28585
0.964                  0.9995396       -15.36188
0.968                  0.9995325       -15.43809
0.972                  0.9995243       -15.51446
0.976                  0.9995149         -15.591
0.98                   0.9995044       -15.66771
0.984                  0.9994924       -15.74459
0.988                  0.9994794       -15.82163
0.992                   0.999465       -15.89884
0.996                  0.9994495       -15.97621
1                      0.9994327       -16.05374
1.004                  0.9994146       -16.13144
1.008                  0.9993951       -16.20929
1.012                  0.9993744        -16.2873
1.016                  0.9993524       -16.36548
1.02                   0.9993292        -16.4438
1.024                  0.9993048       -16.52227
1.028                  0.9992791       -16.60093
1.032                   0.999252       -16.67972
1.036                  0.9992238       -16.75868
1.04                   0.9991942       -16.83777
1.044                  0.9991634         -16.917
1.048                  0.9991314        -16.9964
1.052                  0.9990983       -17.07593
1.056                  0.9990638       -17.15565
1.06                   0.9990283       -17.23548
1.064                  0.9989915       -17.31548
1.068                  0.9989536       -17.39558
1.072                  0.9989146       -17.47587
1.076                  0.9988745       -17.55628
1.08                   0.9988332       -17.63685
1.084                  0.9987909       -17.71753
1.088                  0.9987476       -17.79837
1.092                  0.9987033       -17.87938
1.096                  0.9986579       -17.96049
1.1                    0.9986117       -18.04174
1.104                  0.9985644       -18.12316
1.108                  0.9985163       -18.20471
1.112                  0.9984673        -18.2864
1.116                  0.9984175       -18.36825
1.12                   0.9983668       -18.45022
1.124                  0.9983155       -18.53231
1.128                  0.9982633       -18.61459
1.132                  0.9982104       -18.69698
1.136                   0.998157       -18.77952
1.14                   0.9981028        -18.8622
1.144                  0.9980482       -18.94503
1.148                   0.997993         -19.028
1.152                  0.9979372       -19.11111
1.156                   0.997881       -19.19437
1.16                   0.9978243       -19.27778
1.164                  0.9977672       -19.36133
1.168                  0.9977098       -19.44503
1.172                  0.9976521       -19.52889
1.176                  0.9975942        -19.6129
1.18                   0.9975359       -19.69706
1.184                  0.9974775       -19.78137
1.188                  0.9974191       -19.86585
1.192                  0.9973604       -19.95048
1.196                  0.9973017       -20.03527
1.2                     0.997243       -20.12023
1.204                  0.9971842       -20.20535
1.208                  0.9971256       -20.29064
1.212                  0.9970669       -20.37611
1.216                  0.9970086       -20.46174
1.22                   0.9969503       -20.54755
1.224                  0.9968923       -20.63354
1.228                  0.9968344       -20.71971
1.232                  0.9967769       -20.80607
1.236                  0.9967197       -20.89261
1.24                   0.9966628       -20.97935
1.244                  0.9966064       -21.06627
1.248                  0.9965503        -21.1534
1.252                  0.9964947       -21.24073
1.256                  0.9964397       -21.32826
1.26                   0.9963851         -21.416
1.264                  0.9963311       -21.50396
1.268                  0.9962775       -21.59213
1.272                  0.9962247       -21.68052
1.276                  0.9961724       -21.76914
1.28                   0.9961208       -21.85798
1.284                  0.9960698       -21.94706
1.288                  0.9960195       -22.03638
1.292                  0.9959699       -22.12594
1.296                  0.9959211       -22.21575
1.3                     0.995873       -22.30581
1.304                  0.9958255       -22.39612
1.308                  0.9957789        -22.4867
1.312                   0.995733       -22.57754
1.316                   0.995688       -22.66865
1.32                   0.9956436       -22.76004
1.324                  0.9956002       -22.85171
1.328                  0.9955575       -22.94366
1.332                  0.9955155       -23.03591
1.336                  0.9954744       -23.12845
1.34                    0.995434       -23.22129
1.344                  0.9953943       -23.31445
1.348                  0.9953555       -23.40791
1.352                  0.9953174       -23.50169
1.356                  0.9952801       -23.59579
1.36                   0.9952434       -23.69023
1.364                  0.9952076       -23.78499
1.368                  0.9951724        -23.8801
1.372                  0.9951378       -23.97554
1.376                  0.9951039       -24.07134
1.38                   0.9950706        -24.1675
1.384                   0.995038       -24.26401
1.388                  0.9950059       -24.36089
1.392                  0.9949743       -24.45814
1.396                  0.9949432       -24.55577
1.4                    0.9949126       -24.65378
1.404                  0.9948824       -24.75218
1.408                  0.9948526       -24.85097
1.412                  0.9948231       -24.95016
1.416                   0.994794       -25.04976
1.42                    0.994765       -25.14976
1.424                  0.9947364       -25.25017
1.428                  0.9947078       -25.35101
1.432                  0.9946794       -25.45227
1.436                   0.994651       -25.55396
1.44                   0.9946225       -25.65608
1.444                   0.994594       -25.75864
1.448                  0.9945656       -25.86165
1.452                  0.9945367        -25.9651
1.456                  0.9945076       -26.06901
1.46                   0.9944782       -26.17338
1.464                  0.9944484       -26.27822
1.468                  0.9944184       -26.38351
1.472                  0.9943877       -26.48928
1.476                  0.9943564       -26.59552
1.48                   0.9943244       -26.70225
1.484                  0.9942918       -26.80946
1.488                  0.9942583       -26.91716
1.492                   0.994224       -27.02535
1.496                  0.9941886       -27.13404
1.5                    0.9941523       -27.24322
1.504                  0.9941148       -27.35292
1.508                  0.9940762       -27.46312
1.512                  0.9940364       -27.57382
1.516                  0.9939952       -27.68505
1.52                   0.9939525       -27.79679
1.524                  0.9939083       -27.90905
1.528                  0.9938625       -28.02184
1.532                  0.9938151       -28.13515
1.536                   0.993766       -28.24899
1.54                   0.9937149       -28.36337
1.544                   0.993662       -28.47828
1.548                  0.9936071       -28.59372
1.552                  0.9935501       -28.70971
1.556                  0.9934908       -28.82624
1.56                   0.9934295       -28.94332
1.564                  0.9933658       -29.06093
1.568                  0.9932997       -29.17911
1.572                  0.9932309       -29.29783
1.576                  0.9931598        -29.4171
1.58                    0.993086       -29.53693
1.584                  0.9930094       -29.65731
1.588                  0.9929301       -29.77825
1.592                  0.9928478       -29.89975
1.596                  0.9927627       -30.02181
1.6                    0.9926745       -30.14443
1.604                  0.9925831       -30.26761
1.608                  0.9924886       -30.39136
1.612                  0.9923909       -30.51567
1.616                  0.9922899       -30.64054
1.62                   0.9921853       -30.76599
1.624                  0.9920775         -30.892
1.628                  0.9919662       -31.01858
1.632                  0.9918512       -31.14573
1.636                  0.9917325       -31.27345
1.64                   0.9916103       -31.40174
1.644                  0.9914842        -31.5306
1.648                  0.9913543       -31.66002
1.652                  0.9912205       -31.79003
1.656                   0.991083        -31.9206
1.66                   0.9909413       -32.05175
1.664                  0.9907956       -32.18347
1.668                  0.9906459       -32.31577
1.672                  0.9904921       -32.44863
1.676                  0.9903341       -32.58207
1.68                    0.990172       -32.71609
1.684                  0.9900056       -32.85068
1.688                  0.9898349       -32.98585
1.692                  0.9896599       -33.12159
1.696                  0.9894807       -33.25791
1.7                    0.9892972        -33.3948
1.704                   0.989109       -33.53227
1.708                  0.9889166       -33.67032
1.712                  0.9887197       -33.80895
1.716                  0.9885185       -33.94815
1.72                   0.9883128       -34.08794
1.724                  0.9881025        -34.2283
1.728                  0.9878879       -34.36925
1.732                  0.9876685       -34.51078
1.736                  0.9874449       -34.65289
1.74                   0.9872167       -34.79559
1.744                  0.9869841       -34.93886
1.748                  0.9867468       -35.08273
1.752                  0.9865051       -35.22719
1.756                  0.9862589       -35.37223
1.76                   0.9860081       -35.51786
1.764                   0.985753       -35.66409
1.768                  0.9854932       -35.81092
1.772                  0.9852292       -35.95834
1.776                  0.9849605       -36.10636
1.78                   0.9846875       -36.25498
1.784                    0.98441        -36.4042
1.788                  0.9841282       -36.55403
1.792                   0.983842       -36.70447
1.796                  0.9835515       -36.85553
1.8                    0.9832567        -37.0072
1.804                  0.9829575       -37.15949
1.808                  0.9826541       -37.31241
1.812                  0.9823464       -37.46595
1.816                  0.9820346       -37.62013
1.82                   0.9817185       -37.77493
1.824                  0.9813984       -37.93038
1.828                  0.9810742       -38.08648
1.832                  0.9807458       -38.24322
1.836                  0.9804134       -38.40062
1.84                   0.9800769       -38.55869
1.844                  0.9797364       -38.71742
1.848                  0.9793922       -38.87682
1.852                   0.979044        -39.0369
1.856                   0.978692       -39.19767
1.86                   0.9783361       -39.35913
1.864                  0.9779764       -39.52128
1.868                  0.9776129       -39.68416
1.872                  0.9772458       -39.84774
1.876                  0.9768749       -40.01204
1.88                   0.9765005       -40.17708
1.884                  0.9761225       -40.34285
1.888                  0.9757407       -40.50938
1.892                  0.9753555       -40.67666
1.896                  0.9749667       -40.84471
1.9                    0.9745745       -41.01353
1.904                  0.9741786       -41.18315
1.908                  0.9737796       -41.35355
1.912                  0.9733769       -41.52477
1.916                  0.9729708       -41.69681
1.92                   0.9725616       -41.86967
1.924                  0.9721488       -42.04338
1.928                  0.9717326       -42.21794
1.932                  0.9713132       -42.39336
1.936                  0.9708904       -42.56967
1.94                   0.9704643       -42.74685
1.944                  0.9700347       -42.92495
1.948                   0.969602       -43.10397
1.952                  0.9691659       -43.28392
1.956                  0.9687264        -43.4648
1.96                   0.9682836       -43.64665
1.964                  0.9678374       -43.82947
1.968                  0.9673877       -44.01328
1.972                  0.9669348       -44.19809
1.976                  0.9664783       -44.38392
1.98                   0.9660182       -44.57079
1.984                  0.9655548        -44.7587
1.988                  0.9650877       -44.94768
1.992                  0.9646171       -45.13774
1.996                  0.9641428        -45.3289
2                      0.9636648       -45.52117
2.004                   0.963183       -45.71459
2.008                  0.9626973       -45.90915
2.012                  0.9622076       -46.10488
2.016                  0.9617141       -46.30179
2.02                   0.9612164       -46.49991
2.024                  0.9607145       -46.69925
2.028                  0.9602084       -46.89984
2.032                  0.9596978       -47.10169
2.036                  0.9591828       -47.30481
2.04                   0.9586631       -47.50923
2.044                  0.9581387       -47.71497
2.048                  0.9576096       -47.92205
2.052                  0.9570754       -48.13048
2.056                  0.9565361       -48.34029
2.06                   0.9559915        -48.5515
2.064                  0.9554417       -48.76412
2.068                   0.954886       -48.97819
2.072                  0.9543246       -49.19371
2.076                  0.9537575       -49.41069
2.08                   0.9531843       -49.62919
2.084                  0.9526046        -49.8492
2.088                  0.9520185       -50.07076
2.092                  0.9514258       -50.29387
2.096                  0.9508262       -50.51857
2.1                    0.9502196       -50.74487
2.104                  0.9496056       -50.97279
2.108                  0.9489842       -51.20236
2.112                  0.9483548        -51.4336
2.116                  0.9477176       -51.66652
2.12                   0.9470721       -51.90116
2.124                  0.9464181       -52.13752
2.128                  0.9457553       -52.37565
2.132                  0.9450837       -52.61553
2.136                  0.9444026       -52.85722
2.14                   0.9437121       -53.10071
2.144                  0.9430116       -53.34605
2.148                  0.9423011       -53.59325
2.152                  0.9415801       -53.84233
2.156                  0.9408485        -54.0933
2.16                   0.9401057       -54.34621
2.164                  0.9393517       -54.60106
2.168                   0.938586       -54.85786
2.172                  0.9378083       -55.11666
2.176                  0.9370183       -55.37746
2.18                   0.9362158       -55.64028
2.184                  0.9354002       -55.90516
2.188                  0.9345713       -56.17211
2.192                  0.9337289       -56.44114
2.196                  0.9328722       -56.71228
2.2                    0.9320013       -56.98556
2.204                  0.9311158       -57.26098
2.208                   0.930215       -57.53858
2.212                  0.9292988       -57.81837
2.216                  0.9283668       -58.10037
2.22                   0.9274187        -58.3846
2.224                   0.926454       -58.67107
2.228                  0.9254721       -58.95983
2.232                  0.9244732       -59.25086
2.236                  0.9234564        -59.5442
2.24                   0.9224214       -59.83989
2.244                   0.921368       -60.13791
2.248                  0.9202957        -60.4383
2.252                  0.9192041       -60.74107
2.256                  0.9180928       -61.04625
2.26                   0.9169613       -61.35385
2.264                  0.9158095       -61.66389
2.268                  0.9146368       -61.97638
2.272                  0.9134427       -62.29136
2.276                  0.9122269       -62.60883
2.28                   0.9109891       -62.92881
2.284                  0.9097288       -63.25133
2.288                  0.9084455       -63.57639
2.292                   0.907139       -63.90402
2.296                  0.9058088       -64.23422
2.3                    0.9044546       -64.56704
2.304                  0.9030757       -64.90247
2.308                   0.901672       -65.24054
2.312                  0.9002431       -65.58127
2.316                  0.8987885       -65.92465
2.32                   0.8973078       -66.27072
2.324                  0.8958007        -66.6195
2.328                  0.8942669         -66.971
2.332                  0.8927057       -67.32524
2.336                  0.8911171       -67.68221
2.34                   0.8895004       -68.04197
2.344                  0.8878553       -68.40452
2.348                  0.8861816       -68.76987
2.352                  0.8844789       -69.13803