! TOUCHSTONE file generated by CST MICROWAVE STUDIO
! Date and time: Sat May 14 11:42:14 2022
! Project name: AppElm_antenne_dipole_Alumina.cst
! Parameters = {L=31.35; e=0.035; f=2.45e+09; h=1.6; i=0.8; l1=2; lambda=122.449; ls=30; wl=1.7; ws=80}
! Header version: 2018
! Port assignment regex: !\s*Touchstone port\s*([0-9]+)\s*=\s*(CST MWS port|CST DS port)\s*([0-9]+|Zmin|Zmax)\s*\(\"(.*)\"\)(\s*mode\s*([0-9]+))?.*
! Touchstone port assignment:
! Touchstone port 1 = CST MWS port 1 ("")
# GHz S MA R 50
0                      0.9992612              -0
0.004                  0.9992615     -0.06427163
0.008                  0.9992623      -0.1285452
0.012                  0.9992638      -0.1928227
0.016                  0.9992658       -0.257106
0.02                   0.9992683      -0.3213971
0.024                  0.9992714      -0.3856979
0.028                  0.9992751      -0.4500103
0.032                  0.9992793      -0.5143363
0.036                  0.9992842      -0.5786777
0.04                   0.9992894      -0.6430365
0.044                  0.9992953      -0.7074144
0.048                  0.9993017      -0.7718136
0.052                  0.9993086      -0.8362357
0.056                  0.9993159      -0.9006825
0.06                   0.9993239      -0.9651557
0.064                  0.9993324       -1.029658
0.068                  0.9993412       -1.094189
0.072                  0.9993505       -1.158753
0.076                  0.9993602       -1.223351
0.08                   0.9993705       -1.287983
0.084                  0.9993811       -1.352653
0.088                  0.9993921       -1.417361
0.092                  0.9994034        -1.48211
0.096                  0.9994153         -1.5469
0.1                    0.9994275       -1.611733
0.104                  0.9994399       -1.676612
0.108                  0.9994526       -1.741536
0.112                  0.9994656       -1.806509
0.116                   0.999479        -1.87153
0.12                   0.9994926       -1.936602
0.124                  0.9995065       -2.001726
0.128                  0.9995205       -2.066903
0.132                  0.9995347       -2.132135
0.136                  0.9995492       -2.197421
0.14                   0.9995638       -2.262764
0.144                  0.9995784       -2.328165
0.148                  0.9995932       -2.393625
0.152                   0.999608       -2.459145
0.156                   0.999623       -2.524726
0.16                   0.9996379       -2.590368
0.164                  0.9996528       -2.656073
0.168                  0.9996678       -2.721841
0.172                  0.9996829       -2.787674
0.176                  0.9996976       -2.853571
0.18                   0.9997124       -2.919534
0.184                  0.9997271       -2.985563
0.188                  0.9997416       -3.051658
0.192                  0.9997559       -3.117822
0.196                    0.99977       -3.184052
0.2                     0.999784       -3.250351
0.204                  0.9997978       -3.316718
0.208                  0.9998113       -3.383154
0.212                  0.9998244       -3.449659
0.216                  0.9998373       -3.516233
0.22                   0.9998498       -3.582876
0.224                   0.999862       -3.649589
0.228                  0.9998737       -3.716371
0.232                  0.9998852       -3.783223
0.236                  0.9998962       -3.850144
0.24                   0.9999067       -3.917134
0.244                  0.9999168       -3.984194
0.248                  0.9999262       -4.051322
0.252                  0.9999355       -4.118519
0.256                  0.9999441       -4.185784
0.26                   0.9999521       -4.253118
0.264                  0.9999594       -4.320519
0.268                  0.9999664       -4.387987
0.272                  0.9999726       -4.455522
0.276                  0.9999782       -4.523123
0.28                   0.9999834       -4.590791
0.284                  0.9999877       -4.658522
0.288                  0.9999915       -4.726319
0.292                  0.9999945        -4.79418
0.296                  0.9999969       -4.862103
0.3                    0.9999987       -4.930088
0.304                  0.9999996       -4.998136
0.308                          1       -5.066243
0.312                  0.9999996       -5.134411
0.316                  0.9999985       -5.202639
0.32                   0.9999965       -5.270925
0.324                  0.9999939       -5.339268
0.328                  0.9999906       -5.407669
0.332                  0.9999865       -5.476125
0.336                  0.9999816       -5.544636
0.34                    0.999976         -5.6132
0.344                  0.9999698       -5.681819
0.348                  0.9999626        -5.75049
0.352                  0.9999549       -5.819211
0.356                  0.9999464       -5.887984
0.36                   0.9999371       -5.956806
0.364                  0.9999273       -6.025675
0.368                  0.9999166       -6.094594
0.372                  0.9999052        -6.16356
0.376                  0.9998932       -6.232571
0.38                   0.9998806       -6.301628
0.384                  0.9998671        -6.37073
0.388                  0.9998533       -6.439875
0.392                  0.9998384       -6.509064
0.396                  0.9998233       -6.578296
0.4                    0.9998074       -6.647569
0.404                  0.9997909       -6.716883
0.408                   0.999774       -6.786238
0.412                  0.9997566       -6.855632
0.416                  0.9997385       -6.925068
0.42                     0.99972       -6.994541
0.424                   0.999701       -7.064055
0.428                  0.9996816       -7.133607
0.432                  0.9996617       -7.203197
0.436                  0.9996416       -7.272826
0.44                   0.9996211       -7.342491
0.444                  0.9996002       -7.412198
0.448                  0.9995791        -7.48194
0.452                  0.9995577       -7.551722
0.456                  0.9995361       -7.621542
0.46                   0.9995142       -7.691402
0.464                  0.9994921       -7.761299
0.468                  0.9994701       -7.831237
0.472                  0.9994479       -7.901215
0.476                  0.9994256       -7.971233
0.48                   0.9994033       -8.041293
0.484                   0.999381       -8.111396
0.488                  0.9993587       -8.181542
0.492                  0.9993364       -8.251732
0.496                  0.9993145       -8.321967
0.5                    0.9992925       -8.392249
0.504                  0.9992709       -8.462578
0.508                  0.9992494       -8.532956
0.512                  0.9992283       -8.603384
0.516                  0.9992072       -8.673866
0.52                   0.9991867         -8.7444
0.524                  0.9991664       -8.814991
0.528                  0.9991466       -8.885639
0.532                  0.9991273       -8.956347
0.536                  0.9991084       -9.027114
0.54                   0.9990899       -9.097948
0.544                  0.9990721       -9.168845
0.548                  0.9990548       -9.239812
0.552                  0.9990381       -9.310849
0.556                   0.999022        -9.38196
0.56                   0.9990065       -9.453146
0.564                  0.9989918       -9.524412
0.568                  0.9989778       -9.595758
0.572                  0.9989646       -9.667187
0.576                   0.998952       -9.738706
0.58                   0.9989403       -9.810313
0.584                  0.9989294       -9.882015
0.588                  0.9989193       -9.953815
0.592                    0.99891       -10.02571
0.596                  0.9989016       -10.09771
0.6                    0.9988941       -10.16982
0.604                  0.9988875       -10.24204
0.608                  0.9988818       -10.31437
0.612                   0.998877       -10.38682
0.616                  0.9988731       -10.45939
0.62                   0.9988701       -10.53209
0.624                  0.9988681       -10.60491
0.628                  0.9988671       -10.67787
0.632                  0.9988669       -10.75096
0.636                  0.9988676       -10.82419
0.64                   0.9988694       -10.89756
0.644                  0.9988721       -10.97108
0.648                  0.9988756       -11.04476
0.652                  0.9988801       -11.11859
0.656                  0.9988855       -11.19257
0.66                   0.9988917       -11.26672
0.664                  0.9988989       -11.34104
0.668                  0.9989069       -11.41553
0.672                  0.9989157       -11.49019
0.676                  0.9989254       -11.56503
0.68                   0.9989356       -11.64006
0.684                  0.9989469       -11.71527
0.688                  0.9989588       -11.79066
0.692                  0.9989713       -11.86626
0.696                  0.9989846       -11.94205
0.7                    0.9989984       -12.01804
0.704                  0.9990129       -12.09423
0.708                   0.999028       -12.17063
0.712                  0.9990435       -12.24724
0.716                  0.9990595       -12.32407
0.72                    0.999076       -12.40111
0.724                  0.9990929       -12.47838
0.728                  0.9991101       -12.55587
0.732                  0.9991275       -12.63358
0.736                  0.9991453       -12.71152
0.74                   0.9991632        -12.7897
0.744                  0.9991813       -12.86811
0.748                  0.9991994       -12.94676
0.752                  0.9992177       -13.02565
0.756                  0.9992358       -13.10478
0.76                   0.9992539       -13.18416
0.764                  0.9992717       -13.26378
0.768                  0.9992893       -13.34365
0.772                  0.9993068       -13.42377
0.776                   0.999324       -13.50414
0.78                   0.9993408       -13.58477
0.784                   0.999357       -13.66565
0.788                  0.9993729       -13.74679
0.792                  0.9993881       -13.82818
0.796                  0.9994027       -13.90984
0.8                    0.9994166       -13.99175
0.804                  0.9994298       -14.07392
0.808                  0.9994422       -14.15636
0.812                  0.9994537       -14.23905
0.816                  0.9994642       -14.32201
0.82                   0.9994738       -14.40523
0.824                  0.9994823       -14.48871
0.828                  0.9994897       -14.57245
0.832                  0.9994959       -14.65646
0.836                   0.999501       -14.74072
0.84                   0.9995048       -14.82525
0.844                  0.9995071       -14.91004
0.848                  0.9995083       -14.99508
0.852                  0.9995079       -15.08039
0.856                   0.999506       -15.16595
0.86                   0.9995026       -15.25177
0.864                  0.9994977       -15.33785
0.868                  0.9994911       -15.42418
0.872                  0.9994829       -15.51077
0.876                   0.999473        -15.5976
0.88                   0.9994613       -15.68469
0.884                   0.999448       -15.77203
0.888                  0.9994329       -15.85961
0.892                  0.9994159       -15.94744
0.896                  0.9993971       -16.03551
0.9                    0.9993763       -16.12382
0.904                  0.9993537       -16.21238
0.908                  0.9993292       -16.30117
0.912                  0.9993028        -16.3902
0.916                  0.9992745       -16.47946
0.92                   0.9992442       -16.56895
0.924                   0.999212       -16.65868
0.928                  0.9991777       -16.74863
0.932                  0.9991416        -16.8388
0.936                  0.9991035        -16.9292
0.94                   0.9990634       -17.01983
0.944                  0.9990214       -17.11067
0.948                  0.9989775       -17.20173
0.952                  0.9989317         -17.293
0.956                   0.998884        -17.3845
0.96                   0.9988344        -17.4762
0.964                  0.9987831       -17.56811
0.968                  0.9987298       -17.66024
0.972                  0.9986748       -17.75257
0.976                  0.9986182        -17.8451
0.98                   0.9985597       -17.93785
0.984                  0.9984996       -18.03079
0.988                  0.9984378       -18.12394
0.992                  0.9983745       -18.21729
0.996                  0.9983097       -18.31084
1                      0.9982433       -18.40459
1.004                  0.9981756       -18.49854
1.008                  0.9981066       -18.59269
1.012                  0.9980362       -18.68703
1.016                  0.9979645       -18.78159
1.02                   0.9978916       -18.87634
1.024                  0.9978177       -18.97128
1.028                  0.9977427       -19.06643
1.032                  0.9976668       -19.16178
1.036                  0.9975898       -19.25733
1.04                   0.9975121       -19.35308
1.044                  0.9974335       -19.44903
1.048                  0.9973544       -19.54523
1.052                  0.9972745       -19.64159
1.056                  0.9971942        -19.7382
1.06                   0.9971132         -19.835
1.064                  0.9970321       -19.93201
1.068                  0.9969505       -20.02925
1.072                  0.9968688       -20.12667
1.076                  0.9967869       -20.22437
1.08                   0.9967049       -20.32226
1.084                   0.996623       -20.42042
1.088                   0.996541       -20.51881
1.092                  0.9964593       -20.61744
1.096                  0.9963778       -20.71631
1.1                    0.9962965       -20.81543
1.104                  0.9962157       -20.91479
1.108                  0.9961354       -21.01443
1.112                  0.9960556       -21.11434
1.116                  0.9959762       -21.21453
1.12                   0.9958977       -21.31501
1.124                  0.9958198       -21.41577
1.128                  0.9957427       -21.51681
1.132                  0.9956664       -21.61816
1.136                  0.9955911       -21.71981
1.14                   0.9955166       -21.82179
1.144                  0.9954432       -21.92408
1.148                  0.9953709       -22.02671
1.152                  0.9952997       -22.12968
1.156                  0.9952294         -22.233
1.16                   0.9951605       -22.33667
1.164                  0.9950927       -22.44071
1.168                  0.9950261       -22.54513
1.172                  0.9949608       -22.64993
1.176                  0.9948968       -22.75512
1.18                    0.994834       -22.86071
1.184                  0.9947726       -22.96672
1.188                  0.9947124       -23.07315
1.192                  0.9946535       -23.18002
1.196                  0.9945959       -23.28733
1.2                    0.9945395       -23.39509
1.204                  0.9944845       -23.50331
1.208                  0.9944307         -23.612
1.212                  0.9943781       -23.72118
1.216                  0.9943267       -23.83086
1.22                   0.9942765       -23.94104
1.224                  0.9942273       -24.05173
1.228                  0.9941793       -24.16295
1.232                  0.9941322       -24.27471
1.236                  0.9940861       -24.38701
1.24                   0.9940409       -24.49987
1.244                  0.9939966       -24.61331
1.248                  0.9939528       -24.72732
1.252                  0.9939098       -24.84191
1.256                  0.9938675       -24.95711
1.26                   0.9938256       -25.07292
1.264                  0.9937842       -25.18935
1.268                   0.993743       -25.30641
1.272                  0.9937021       -25.42411
1.276                  0.9936611       -25.54246
1.28                   0.9936201       -25.66147
1.284                  0.9935791       -25.78115
1.288                  0.9935378       -25.90151
1.292                   0.993496       -26.02255
1.296                  0.9934538       -26.14429
1.3                    0.9934108       -26.26675
1.304                   0.993367       -26.38991
1.308                  0.9933223        -26.5138
1.312                  0.9932766       -26.63842
1.316                  0.9932296       -26.76378
1.32                   0.9931811       -26.88989
1.324                  0.9931311       -27.01675
1.328                  0.9930794       -27.14438
1.332                  0.9930258       -27.27277
1.336                  0.9929702       -27.40194
1.34                   0.9929122        -27.5319
1.344                   0.992852       -27.66263
1.348                  0.9927893       -27.79417
1.352                  0.9927238        -27.9265
1.356                  0.9926555       -28.05964
1.36                   0.9925841        -28.1936
1.364                  0.9925093       -28.32837
1.368                  0.9924313       -28.46395
1.372                  0.9923496       -28.60037
1.376                  0.9922642       -28.73761
1.38                   0.9921748       -28.87568
1.384                  0.9920813       -29.01459
1.388                  0.9919837       -29.15434
1.392                  0.9918816       -29.29492
1.396                  0.9917749       -29.43636
1.4                    0.9916634       -29.57864
1.404                  0.9915469       -29.72177
1.408                  0.9914254       -29.86574
1.412                  0.9912987       -30.01057
1.416                  0.9911667       -30.15625
1.42                   0.9910289       -30.30279
1.424                  0.9908856       -30.45018
1.428                  0.9907362       -30.59843
1.432                  0.9905811       -30.74754
1.436                  0.9904198        -30.8975
1.44                   0.9902522       -31.04832
1.444                  0.9900783           -31.2
1.448                   0.989898       -31.35253
1.452                   0.989711       -31.50592
1.456                  0.9895173       -31.66016
1.46                   0.9893167       -31.81526
1.464                  0.9891092       -31.97122
1.468                  0.9888948       -32.12803
1.472                  0.9886731        -32.2857
1.476                  0.9884444       -32.44422
1.48                   0.9882083       -32.60359
1.484                   0.987965       -32.76381
1.488                  0.9877142       -32.92489
1.492                  0.9874559       -33.08681
1.496                  0.9871904       -33.24959
1.5                    0.9869169       -33.41322
1.504                  0.9866361        -33.5777
1.508                  0.9863475       -33.74302
1.512                  0.9860516        -33.9092
1.516                  0.9857477       -34.07623
1.52                   0.9854362        -34.2441
1.524                  0.9851172       -34.41283
1.528                  0.9847903       -34.58241
1.532                  0.9844558       -34.75284
1.536                  0.9841137       -34.92413
1.54                   0.9837638       -35.09628
1.544                  0.9834065       -35.26928
1.548                  0.9830415       -35.44314
1.552                  0.9826691       -35.61786
1.556                  0.9822891       -35.79345
1.56                   0.9819016       -35.96992
1.564                  0.9815068       -36.14725
1.568                  0.9811046       -36.32547
1.572                  0.9806951       -36.50458
1.576                  0.9802783       -36.68457
1.58                   0.9798546       -36.86545
1.584                  0.9794237       -37.04724
1.588                  0.9789859       -37.22993
1.592                  0.9785411       -37.41354
1.596                  0.9780895       -37.59809
1.6                    0.9776312       -37.78357
1.604                  0.9771662       -37.96998
1.608                  0.9766946       -38.15737
1.612                  0.9762166        -38.3457
1.616                  0.9757322       -38.53503
1.62                   0.9752416       -38.72534
1.624                  0.9747446       -38.91665
1.628                  0.9742416       -39.10898
1.632                  0.9737326       -39.30235
1.636                  0.9732177       -39.49676
1.64                   0.9726969       -39.69223
1.644                  0.9721703       -39.88879
1.648                  0.9716381       -40.08645
1.652                  0.9711003       -40.28523
1.656                   0.970557       -40.48513
1.66                   0.9700082        -40.6862
1.664                  0.9694539       -40.88845
1.668                  0.9688943        -41.0919
1.672                  0.9683295       -41.29657
1.676                  0.9677595       -41.50248
1.68                   0.9671841       -41.70967
1.684                  0.9666037       -41.91815
1.688                   0.966018       -42.12796
1.692                  0.9654272        -42.3391
1.696                  0.9648313       -42.55164
1.7                    0.9642302       -42.76557
1.704                   0.963624       -42.98094
1.708                  0.9630126       -43.19777
1.712                   0.962396       -43.41609
1.716                   0.961774       -43.63595
1.72                   0.9611467       -43.85736
1.724                  0.9605142       -44.08036
1.728                   0.959876       -44.30499
1.732                  0.9592321       -44.53127
1.736                  0.9585827       -44.75925
1.74                   0.9579272       -44.98896
1.744                  0.9572659       -45.22043
1.748                  0.9565984       -45.45371
1.752                  0.9559245       -45.68883
1.756                   0.955244       -45.92583
1.76                    0.954557       -46.16474
1.764                  0.9538627       -46.40562
1.768                  0.9531615       -46.64848
1.772                  0.9524526       -46.89339
1.776                  0.9517361       -47.14036
1.78                   0.9510114       -47.38947
1.784                  0.9502784       -47.64073
1.788                  0.9495366       -47.89419
1.792                   0.948786       -48.14989
1.796                  0.9480259       -48.40788
1.8                    0.9472559       -48.66821
1.804                  0.9464756        -48.9309
1.808                  0.9456849         -49.196
1.812                   0.944883       -49.46357
1.816                  0.9440697       -49.73363
1.82                   0.9432442       -50.00625
1.824                  0.9424063       -50.28145
1.828                  0.9415554       -50.55928
1.832                  0.9406909       -50.83979
1.836                  0.9398124       -51.12302
1.84                    0.938919       -51.40902
1.844                  0.9380106       -51.69782
1.848                  0.9370861       -51.98948
1.852                  0.9361453       -52.28403
1.856                  0.9351873       -52.58152
1.86                   0.9342115         -52.882
1.864                  0.9332174       -53.18549
1.868                   0.932204       -53.49205
1.872                  0.9311708       -53.80173
1.876                   0.930117       -54.11457
1.88                   0.9290421       -54.43059
1.884                  0.9279451       -54.74986
1.888                  0.9268254        -55.0724
1.892                   0.925682       -55.39826
1.896                  0.9245144       -55.72749
1.9                    0.9233216       -56.06012
1.904                   0.922103       -56.39619
1.908                  0.9208577       -56.73574
1.912                  0.9195847       -57.07882
1.916                  0.9182835       -57.42545
1.92                   0.9169529       -57.77569
1.924                  0.9155923       -58.12956
1.928                  0.9142007       -58.48711
1.932                  0.9127774       -58.84837
1.936                  0.9113215       -59.21338
1.94                    0.909832       -59.58218
1.944                  0.9083081       -59.95479
1.948                   0.906749       -60.33126
1.952                  0.9051537       -60.71164
1.956                  0.9035214       -61.09594
1.96                   0.9018513        -61.4842
1.964                  0.9001421       -61.87647
1.968                  0.8983935       -62.27276
1.972                  0.8966042       -62.67311
1.976                  0.8947735       -63.07757
1.98                   0.8929006       -63.48615
1.984                  0.8909845        -63.8989
1.988                  0.8890245       -64.31584
1.992                  0.8870193       -64.73701
1.996                  0.8849686       -65.16244
2                      0.8828713       -65.59217
2.004                  0.8807266       -66.02619
2.008                  0.8785337       -66.46459
2.012                  0.8762917       -66.90737
2.016                  0.8739999       -67.35457
2.02                   0.8716576       -67.80621
2.024                  0.8692638       -68.26231
2.028                  0.8668179       -68.72294
2.032                   0.864319        -69.1881
2.036                  0.8617666       -69.65783
2.04                   0.8591599       -70.13216
2.044                  0.8564981       -70.61113
2.048                  0.8537807       -71.09474
2.052                  0.8510068       -71.58307
2.056                   0.848176       -72.07611
2.06                   0.8452876       -72.57391
2.064                   0.842341       -73.07652
2.068                  0.8393356       -73.58393
2.072                  0.8362708       -74.09622
2.076                  0.8331463        -74.6134
2.08                   0.8299614        -75.1355
2.084                  0.8267156       -75.66259
2.088                  0.8234087       -76.19468
2.092                  0.8200399       -76.73179
2.096                  0.8166092       -77.27398
2.1                     0.813116       -77.82131
2.104                    0.80956       -78.37378
2.108                  0.8059409       -78.93148
2.112                  0.8022584        -79.4944
2.116                  0.7985124       -80.06263
2.12                   0.7947024       -80.63618
2.124                  0.7908287       -81.21511
2.128                  0.7868906        -81.7995
2.132                  0.7828883       -82.38936
2.136                  0.7788216       -82.98476
2.14                   0.7746907       -83.58573
2.144                  0.7704953       -84.19239
2.148                  0.7662355       -84.80473
2.152                  0.7619115       -85.42286
2.156                  0.7575233       -86.04681
2.16                    0.753071       -86.67667
2.164                  0.7485549        -87.3125
2.168                  0.7439751       -87.95439
2.172                  0.7393321        -88.6024
2.176                  0.7346258       -89.25659
2.18                    0.729857       -89.91707
2.184                  0.7250256       -90.58392
2.188                  0.7201324       -91.25721
2.192                  0.7151779       -91.93706
2.196                  0.7101624       -92.62355
2.2                    0.7050864       -93.31679
2.204                  0.6999508       -94.01688
2.208                   0.694756       -94.72394
2.212                   0.689503       -95.43808
2.216                  0.6841921       -96.15941
2.22                   0.6788245       -96.88809
2.224                  0.6734008        -97.6242
2.228                  0.6679219       -98.36793
2.232                  0.6623889       -99.11939
2.236                  0.6568028       -99.87874
2.24                   0.6511645       -100.6462
2.244                  0.6454752       -101.4218
2.248                   0.639736       -102.2058
2.252                  0.6339481       -102.9984
2.256                  0.6281128       -103.7997
2.26                   0.6222314         -104.61
2.264                  0.6163053       -105.4294
2.268                  0.6103359       -106.2583
2.272                  0.6043249       -107.0967
2.276                  0.5982735       -107.9449
2.28                   0.5921837       -108.8033
2.284                  0.5860569        -109.672
2.288                  0.5798951       -110.5513
2.292                  0.5736998       -111.4415
2.296                  0.5674732       -112.3429
2.3                    0.5612171       -113.2557
2.304                  0.5549337       -114.1804
2.308                  0.5486249       -115.1173
2.312                  0.5422932       -116.0667
2.316                  0.5359405       -117.0289
2.32                   0.5295695       -118.0044
2.324                  0.5231824       -118.9935
2.328                  0.5167819       -119.9967
2.332                  0.5103704       -121.0144
2.336                  0.5039509       -122.0471
2.34                    0.497526       -123.0952
2.344                  0.4910987       -124.1592
2.348                   0.484672       -125.2397
2.352                   0.478249       -126.3371