! TOUCHSTONE file generated by CST MICROWAVE STUDIO
! Date and time: Sat May 14 11:42:17 2022
! Project name: AppElm_antenne_dipole_Alumina.cst
! Parameters = {L=36.3; e=0.035; f=2.45e+09; h=1.6; i=0.8; l1=2; lambda=122.449; ls=30; wl=1.7; ws=80}
! Header version: 2018
! Port assignment regex: !\s*Touchstone port\s*([0-9]+)\s*=\s*(CST MWS port|CST DS port)\s*([0-9]+|Zmin|Zmax)\s*\(\"(.*)\"\)(\s*mode\s*([0-9]+))?.*
! Touchstone port assignment:
! Touchstone port 1 = CST MWS port 1 ("")
# GHz S MA R 50
0                      0.9999976              -0
0.004                  0.9999955     -0.07388555
0.008                  0.9999891      -0.1477587
0.012                  0.9999784      -0.2216069
0.016                  0.9999635      -0.2954179
0.02                   0.9999445      -0.3691795
0.024                  0.9999213      -0.4428796
0.028                  0.9998941      -0.5165064
0.032                  0.9998628      -0.5900481
0.036                  0.9998277      -0.6634934
0.04                   0.9997888      -0.7368313
0.044                  0.9997462       -0.810051
0.048                  0.9997002       -0.883142
0.052                  0.9996507      -0.9560945
0.056                   0.999598       -1.028899
0.06                   0.9995421       -1.101546
0.064                  0.9994833       -1.174028
0.068                  0.9994218       -1.246335
0.072                  0.9993578       -1.318462
0.076                  0.9992913         -1.3904
0.08                   0.9992224       -1.462144
0.084                   0.999152       -1.533687
0.088                  0.9990794       -1.605026
0.092                  0.9990055       -1.676154
0.096                  0.9989301       -1.747069
0.1                    0.9988536       -1.817768
0.104                  0.9987763       -1.888248
0.108                  0.9986983       -1.958507
0.112                  0.9986199       -2.028545
0.116                  0.9985412       -2.098362
0.12                   0.9984627       -2.167958
0.124                  0.9983843       -2.237333
0.128                  0.9983066       -2.306492
0.132                  0.9982296       -2.375436
0.136                  0.9981535       -2.444168
0.14                   0.9980787       -2.512693
0.144                  0.9980051       -2.581017
0.148                  0.9979334       -2.649143
0.152                  0.9978635        -2.71708
0.156                  0.9977956       -2.784834
0.16                     0.99773       -2.852411
0.164                  0.9976669       -2.919822
0.168                  0.9976065       -2.987074
0.172                  0.9975488       -3.054178
0.176                  0.9974942       -3.121143
0.18                   0.9974429        -3.18798
0.184                  0.9973949       -3.254699
0.188                  0.9973503       -3.321314
0.192                  0.9973094       -3.387835
0.196                  0.9972722       -3.454276
0.2                    0.9972389       -3.520649
0.204                  0.9972096       -3.586967
0.208                  0.9971842       -3.653245
0.212                   0.997163       -3.719495
0.216                   0.997146       -3.785733
0.22                   0.9971334       -3.851971
0.224                  0.9971249       -3.918226
0.228                  0.9971209        -3.98451
0.232                  0.9971211        -4.05084
0.236                  0.9971257        -4.11723
0.24                   0.9971346       -4.183693
0.244                  0.9971479       -4.250246
0.248                  0.9971654       -4.316903
0.252                  0.9971872       -4.383677
0.256                   0.997213       -4.450584
0.26                    0.997243       -4.517638
0.264                   0.997277       -4.584852
0.268                  0.9973149        -4.65224
0.272                  0.9973566       -4.719815
0.276                  0.9974018        -4.78759
0.28                   0.9974507       -4.855577
0.284                  0.9975029       -4.923789
0.288                  0.9975584       -4.992237
0.292                  0.9976169       -5.060933
0.296                  0.9976782       -5.129886
0.3                    0.9977424       -5.199107
0.304                   0.997809       -5.268606
0.308                  0.9978779       -5.338392
0.312                  0.9979491       -5.408471
0.316                   0.998022       -5.478852
0.32                   0.9980966       -5.549543
0.324                  0.9981726       -5.620549
0.328                    0.99825       -5.691875
0.332                  0.9983283       -5.763527
0.336                  0.9984072       -5.835509
0.34                   0.9984867       -5.907823
0.344                  0.9985665       -5.980473
0.348                  0.9986463        -6.05346
0.352                  0.9987258       -6.126786
0.356                   0.998805        -6.20045
0.36                   0.9988834       -6.274453
0.364                  0.9989608       -6.348792
0.368                  0.9990371       -6.423468
0.372                  0.9991118       -6.498475
0.376                   0.999185       -6.573812
0.38                   0.9992562       -6.649474
0.384                  0.9993254       -6.725456
0.388                  0.9993922       -6.801754
0.392                  0.9994564        -6.87836
0.396                   0.999518       -6.955268
0.4                    0.9995765       -7.032471
0.404                   0.999632        -7.10996
0.408                  0.9996842       -7.187728
0.412                  0.9997327       -7.265765
0.416                  0.9997778        -7.34406
0.42                    0.999819       -7.422606
0.424                  0.9998563        -7.50139
0.428                  0.9998895       -7.580403
0.432                  0.9999185       -7.659633
0.436                  0.9999433       -7.739066
0.44                   0.9999637       -7.818695
0.444                  0.9999795       -7.898503
0.448                   0.999991        -7.97848
0.452                  0.9999978       -8.058612
0.456                          1       -8.138888
0.46                   0.9999975       -8.219293
0.464                  0.9999905       -8.299816
0.468                  0.9999787       -8.380442
0.472                  0.9999622       -8.461159
0.476                   0.999941       -8.541955
0.48                   0.9999154       -8.622816
0.484                  0.9998852        -8.70373
0.488                  0.9998506       -8.784682
0.492                  0.9998116       -8.865663
0.496                  0.9997681        -8.94666
0.5                    0.9997206       -9.027659
0.504                  0.9996689       -9.108655
0.508                  0.9996133       -9.189627
0.512                  0.9995539       -9.270573
0.516                  0.9994909       -9.351479
0.52                   0.9994245       -9.432335
0.524                  0.9993545       -9.513133
0.528                  0.9992816       -9.593863
0.532                  0.9992056       -9.674521
0.536                   0.999127       -9.755092
0.54                   0.9990457       -9.835577
0.544                  0.9989622       -9.915966
0.548                  0.9988766       -9.996255
0.552                  0.9987892       -10.07644
0.556                  0.9987002       -10.15651
0.56                   0.9986097       -10.23647
0.564                  0.9985181       -10.31631
0.568                  0.9984257       -10.39604
0.572                  0.9983327       -10.47565
0.576                  0.9982393       -10.55515
0.58                   0.9981457       -10.63452
0.584                  0.9980524       -10.71378
0.588                  0.9979594       -10.79293
0.592                  0.9978671       -10.87197
0.596                  0.9977758        -10.9509
0.6                    0.9976855       -11.02973
0.604                  0.9975968       -11.10847
0.608                  0.9975097       -11.18712
0.612                  0.9974246       -11.26568
0.616                  0.9973416       -11.34418
0.62                    0.997261       -11.42261
0.624                   0.997183       -11.50099
0.628                  0.9971078       -11.57931
0.632                  0.9970356       -11.65761
0.636                  0.9969667       -11.73589
0.64                   0.9969012       -11.81416
0.644                  0.9968393       -11.89244
0.648                  0.9967811       -11.97073
0.652                   0.996727       -12.04905
0.656                  0.9966768       -12.12742
0.66                    0.996631       -12.20585
0.664                  0.9965893       -12.28436
0.668                  0.9965521       -12.36297
0.672                  0.9965195       -12.44168
0.676                  0.9964914       -12.52052
0.68                   0.9964681       -12.59951
0.684                  0.9964494       -12.67866
0.688                  0.9964355       -12.75798
0.692                  0.9964264       -12.83751
0.696                  0.9964221       -12.91725
0.7                    0.9964227       -12.99722
0.704                  0.9964278       -13.07744
0.708                  0.9964378       -13.15793
0.712                  0.9964524        -13.2387
0.716                  0.9964715       -13.31978
0.72                   0.9964952       -13.40118
0.724                  0.9965234       -13.48292
0.728                  0.9965557       -13.56502
0.732                  0.9965924       -13.64749
0.736                   0.996633       -13.73034
0.74                   0.9966775        -13.8136
0.744                  0.9967257       -13.89728
0.748                  0.9967775       -13.98139
0.752                  0.9968325       -14.06595
0.756                  0.9968907       -14.15098
0.76                   0.9969519       -14.23648
0.764                  0.9970157       -14.32246
0.768                   0.997082       -14.40895
0.772                  0.9971505       -14.49595
0.776                  0.9972209       -14.58348
0.78                   0.9972931       -14.67153
0.784                  0.9973667       -14.76013
0.788                  0.9974413       -14.84928
0.792                  0.9975169       -14.93898
0.796                  0.9975931       -15.02924
0.8                    0.9976695       -15.12008
0.804                   0.997746       -15.21149
0.808                  0.9978221       -15.30347
0.812                  0.9978976       -15.39603
0.816                  0.9979723       -15.48918
0.82                   0.9980456       -15.58292
0.824                  0.9981176       -15.67724
0.828                  0.9981878       -15.77214
0.832                  0.9982558       -15.86762
0.836                  0.9983215       -15.96369
0.84                   0.9983844       -16.06033
0.844                  0.9984445       -16.15755
0.848                  0.9985014       -16.25534
0.852                  0.9985547       -16.35369
0.856                  0.9986043       -16.45259
0.86                   0.9986498       -16.55205
0.864                  0.9986912       -16.65205
0.868                   0.998728       -16.75258
0.872                  0.9987601       -16.85364
0.876                  0.9987873       -16.95521
0.88                   0.9988094       -17.05729
0.884                  0.9988262       -17.15986
0.888                  0.9988376       -17.26291
0.892                  0.9988431       -17.36643
0.896                   0.998843       -17.47042
0.9                    0.9988369       -17.57484
0.904                  0.9988247        -17.6797
0.908                  0.9988064       -17.78497
0.912                  0.9987818       -17.89065
0.916                   0.998751       -17.99672
0.92                   0.9987138       -18.10316
0.924                  0.9986702       -18.20996
0.928                  0.9986201       -18.31712
0.932                  0.9985635        -18.4246
0.936                  0.9985006        -18.5324
0.94                   0.9984312       -18.64051
0.944                  0.9983556       -18.74891
0.948                  0.9982736       -18.85758
0.952                  0.9981854       -18.96651
0.956                  0.9980909       -19.07569
0.96                   0.9979906       -19.18511
0.964                  0.9978842       -19.29474
0.968                  0.9977723       -19.40459
0.972                  0.9976546       -19.51464
0.976                  0.9975316       -19.62487
0.98                   0.9974032       -19.73528
0.984                  0.9972699       -19.84585
0.988                  0.9971317       -19.95658
0.992                   0.996989       -20.06746
0.996                  0.9968418       -20.17848
1                      0.9966906       -20.28964
1.004                  0.9965354       -20.40092
1.008                  0.9963766        -20.5123
1.012                  0.9962146        -20.6238
1.016                  0.9960496       -20.73543
1.02                   0.9958817       -20.84717
1.024                  0.9957115       -20.95903
1.028                  0.9955392       -21.07099
1.032                   0.995365       -21.18306
1.036                  0.9951893       -21.29523
1.04                   0.9950126        -21.4075
1.044                  0.9948348       -21.51989
1.048                  0.9946566       -21.63243
1.052                  0.9944781        -21.7451
1.056                  0.9942997       -21.85785
1.06                   0.9941219        -21.9708
1.064                  0.9939447       -22.08388
1.068                  0.9937686       -22.19712
1.072                  0.9935939       -22.31053
1.076                  0.9934207       -22.42413
1.08                   0.9932496       -22.53795
1.084                  0.9930807       -22.65196
1.088                  0.9929144       -22.76621
1.092                  0.9927508       -22.88071
1.096                  0.9925903       -22.99549
1.1                     0.992433       -23.11053
1.104                  0.9922793       -23.22588
1.108                  0.9921293       -23.34159
1.112                  0.9919833       -23.45762
1.116                  0.9918414       -23.57403
1.12                   0.9917037       -23.69083
1.124                  0.9915706       -23.80809
1.128                  0.9914419       -23.92573
1.132                   0.991318       -24.04387
1.136                   0.991199       -24.16251
1.14                    0.991085       -24.28166
1.144                  0.9909758       -24.40137
1.148                  0.9908717       -24.52165
1.152                  0.9907725       -24.64254
1.156                  0.9906785       -24.76406
1.16                   0.9905895       -24.88624
1.164                  0.9905054       -25.00912
1.168                  0.9904263       -25.13272
1.172                  0.9903518       -25.25706
1.176                  0.9902823       -25.38218
1.18                   0.9902173       -25.50811
1.184                  0.9901567       -25.63488
1.188                  0.9901005        -25.7625
1.192                  0.9900485       -25.89103
1.196                  0.9900003       -26.02047
1.2                    0.9899557       -26.15086
1.204                  0.9899146       -26.28222
1.208                  0.9898766       -26.41458
1.212                  0.9898414       -26.54798
1.216                  0.9898089       -26.68243
1.22                   0.9897787       -26.81795
1.224                  0.9897503       -26.95458
1.228                  0.9897235       -27.09234
1.232                  0.9896978       -27.23124
1.236                  0.9896728       -27.37131
1.24                   0.9896484       -27.51257
1.244                  0.9896239       -27.65505
1.248                   0.989599       -27.79875
1.252                  0.9895731        -27.9437
1.256                  0.9895459       -28.08992
1.26                   0.9895169       -28.23741
1.264                  0.9894857        -28.3862
1.268                  0.9894518        -28.5363
1.272                  0.9894148       -28.68772
1.276                  0.9893739       -28.84048
1.28                    0.989329       -28.99457
1.284                  0.9892795       -29.15001
1.288                  0.9892248       -29.30682
1.292                  0.9891645       -29.46498
1.296                   0.989098       -29.62453
1.3                    0.9890251       -29.78544
1.304                   0.988945       -29.94774
1.308                  0.9888575       -30.11142
1.312                  0.9887619       -30.27647
1.316                   0.988658       -30.44291
1.32                   0.9885451       -30.61074
1.324                  0.9884228       -30.77994
1.328                  0.9882907       -30.95052
1.332                  0.9881486       -31.12246
1.336                  0.9879957       -31.29578
1.34                   0.9878319       -31.47046
1.344                  0.9876566       -31.64649
1.348                  0.9874698       -31.82387
1.352                  0.9872708       -32.00259
1.356                  0.9870593       -32.18264
1.36                   0.9868351       -32.36401
1.364                  0.9865979        -32.5467
1.368                  0.9863474       -32.73067
1.372                  0.9860834       -32.91595
1.376                  0.9858054       -33.10251
1.38                   0.9855136       -33.29032
1.384                  0.9852075       -33.47941
1.388                  0.9848871       -33.66973
1.392                  0.9845521       -33.86128
1.396                  0.9842024       -34.05406
1.4                    0.9838382       -34.24805
1.404                   0.983459       -34.44323
1.408                   0.983065        -34.6396
1.412                  0.9826561       -34.83715
1.416                  0.9822321       -35.03586
1.42                   0.9817934       -35.23573
1.424                  0.9813396       -35.43674
1.428                  0.9808711       -35.63889
1.432                   0.980388       -35.84217
1.436                  0.9798899       -36.04657
1.44                   0.9793775       -36.25208
1.444                  0.9788506       -36.45871
1.448                  0.9783095       -36.66644
1.452                  0.9777544       -36.87527
1.456                  0.9771853        -37.0852
1.46                   0.9766026       -37.29623
1.464                  0.9760065       -37.50836
1.468                  0.9753971       -37.72159
1.472                  0.9747748       -37.93593
1.476                  0.9741399       -38.15137
1.48                   0.9734924       -38.36794
1.484                   0.972833       -38.58562
1.488                  0.9721616       -38.80444
1.492                  0.9714787       -39.02441
1.496                  0.9707848       -39.24554
1.5                    0.9700799       -39.46785
1.504                  0.9693644       -39.69135
1.508                  0.9686388       -39.91606
1.512                  0.9679031       -40.14201
1.516                   0.967158       -40.36921
1.52                   0.9664035        -40.5977
1.524                    0.96564        -40.8275
1.528                  0.9648678       -41.05865
1.532                  0.9640873       -41.29116
1.536                  0.9632986       -41.52509
1.54                   0.9625021       -41.76046
1.544                  0.9616982       -41.99731
1.548                  0.9608869        -42.2357
1.552                  0.9600683       -42.47564
1.556                   0.959243       -42.71721
1.56                   0.9584111       -42.96042
1.564                  0.9575726       -43.20536
1.568                  0.9567275       -43.45206
1.572                  0.9558763       -43.70056
1.576                  0.9550189       -43.95094
1.58                   0.9541553       -44.20326
1.584                  0.9532857       -44.45755
1.588                  0.9524099        -44.7139
1.592                  0.9515279       -44.97237
1.596                  0.9506397       -45.23301
1.6                    0.9497452       -45.49588
1.604                  0.9488443       -45.76109
1.608                  0.9479364       -46.02868
1.612                  0.9470219       -46.29871
1.616                  0.9461003       -46.57127
1.62                   0.9451711       -46.84644
1.624                  0.9442339       -47.12429
1.628                  0.9432888       -47.40491
1.632                  0.9423349       -47.68833
1.636                  0.9413719       -47.97468
1.64                   0.9403994       -48.26401
1.644                  0.9394165       -48.55642
1.648                  0.9384228       -48.85198
1.652                  0.9374176       -49.15076
1.656                  0.9364003       -49.45286
1.66                     0.93537       -49.75836
1.664                  0.9343259       -50.06733
1.668                  0.9332672       -50.37986
1.672                   0.932193       -50.69604
1.676                  0.9311024       -51.01594
1.68                   0.9299945       -51.33966
1.684                  0.9288681       -51.66726
1.688                  0.9277223       -51.99882
1.692                  0.9265558       -52.33446
1.696                  0.9253676       -52.67422
1.7                    0.9241566       -53.01819
1.704                  0.9229214       -53.36646
1.708                  0.9216608       -53.71911
1.712                  0.9203734        -54.0762
1.716                  0.9190582       -54.43782
1.72                   0.9177135       -54.80404
1.724                   0.916338       -55.17494
1.728                  0.9149305        -55.5506
1.732                  0.9134892       -55.93109
1.736                  0.9120128       -56.31646
1.74                      0.9105       -56.70681
1.744                  0.9089488       -57.10221
1.748                   0.907358       -57.50269
1.752                   0.905726       -57.90837
1.756                  0.9040512       -58.31928
1.76                    0.902332       -58.73548
1.764                  0.9005668       -59.15707
1.768                   0.898754       -59.58407
1.772                   0.896892       -60.01658
1.776                  0.8949792       -60.45461
1.78                   0.8930138       -60.89827
1.784                  0.8909944       -61.34759
1.788                  0.8889193       -61.80262
1.792                   0.886787       -62.26342
1.796                  0.8845957       -62.73007
1.8                    0.8823438       -63.20258
1.804                  0.8800298       -63.68102
1.808                  0.8776522       -64.16544
1.812                  0.8752093       -64.65589
1.816                  0.8726996       -65.15245
1.82                   0.8701216       -65.65509
1.824                  0.8674738       -66.16393
1.828                  0.8647547       -66.67898
1.832                   0.861963        -67.2003
1.836                   0.859097       -67.72795
1.84                   0.8561556       -68.26193
1.844                  0.8531374       -68.80231
1.848                  0.8500409       -69.34916
1.852                  0.8468651       -69.90249
1.856                  0.8436087       -70.46236
1.86                   0.8402703       -71.02881
1.864                  0.8368489       -71.60189
1.868                  0.8333435       -72.18167
1.872                   0.829753       -72.76813
1.876                  0.8260764       -73.36141
1.88                   0.8223126       -73.96148
1.884                   0.818461       -74.56842
1.888                  0.8145205       -75.18231
1.892                  0.8104905       -75.80314
1.896                  0.8063702       -76.43103
1.9                    0.8021589         -77.066
1.904                  0.7978561       -77.70814
1.908                  0.7934613       -78.35747
1.912                  0.7889739       -79.01407
1.916                  0.7843937       -79.67802
1.92                   0.7797203       -80.34937
1.924                  0.7749531       -81.02821
1.928                  0.7700925       -81.71462
1.932                  0.7651381       -82.40867
1.936                  0.7600897       -83.11043
1.94                   0.7549475       -83.82004
1.944                  0.7497117       -84.53752
1.948                  0.7443824       -85.26304
1.952                  0.7389598       -85.99665
1.956                  0.7334444       -86.73849
1.96                   0.7278365       -87.48867
1.964                  0.7221367       -88.24731
1.968                  0.7163455       -89.01453
1.972                  0.7104637       -89.79048
1.976                   0.704492       -90.57531
1.98                   0.6984313       -91.36917
1.984                  0.6922825       -92.17221
1.988                  0.6860467       -92.98459
1.992                  0.6797249       -93.80654
1.996                  0.6733184       -94.63821
2                      0.6668286        -95.4798
2.004                  0.6602568       -96.33155
2.008                  0.6536045       -97.19368
2.012                  0.6468734       -98.06642
2.016                   0.640065       -98.95004
2.02                   0.6331814       -99.84481
2.024                  0.6262243        -100.751
2.028                  0.6191958       -101.6689
2.032                  0.6120981       -102.5989
2.036                  0.6049333       -103.5413
2.04                   0.5977037       -104.4964
2.044                   0.590412       -105.4647
2.048                  0.5830606       -106.4465
2.052                  0.5756522       -107.4422
2.056                  0.5681899       -108.4524
2.06                   0.5606763       -109.4775
2.064                  0.5531147        -110.518
2.068                  0.5455083       -111.5745
2.072                  0.5378605       -112.6475
2.076                  0.5301747       -113.7375
2.08                   0.5224548       -114.8454
2.084                  0.5147045       -115.9717
2.088                  0.5069278       -117.1172
2.092                  0.4991289       -118.2825
2.096                  0.4913121       -119.4686
2.1                    0.4834821       -120.6763
2.104                  0.4756436       -121.9064
2.108                  0.4678014       -123.1599
2.112                  0.4599609       -124.4377
2.116                  0.4521273       -125.7411
2.12                   0.4443063       -127.0709
2.124                  0.4365038       -128.4285
2.128                  0.4287261       -129.8149
2.132                  0.4209795       -131.2316
2.136                  0.4132707       -132.6798
2.14                   0.4056068        -134.161
2.144                  0.3979952       -135.6765
2.148                  0.3904435       -137.2279
2.152                  0.3829601       -138.8168
2.156                   0.375553       -140.4448
2.16                   0.3682314       -142.1134
2.164                  0.3610043       -143.8245
2.168                  0.3538815       -145.5797
2.172                   0.346873       -147.3807
2.176                  0.3399893       -149.2292
2.18                   0.3332414        -151.127
2.184                  0.3266407       -153.0756
2.188                   0.320199       -155.0766
2.192                  0.3139285       -157.1314
2.196                  0.3078419       -159.2414
2.2                    0.3019521       -161.4075
2.204                  0.2962724       -163.6308
2.208                  0.2908162       -165.9117
2.212                  0.2855974       -168.2505
2.216                  0.2806296        -170.647
2.22                   0.2759265       -173.1006
2.224                  0.2715016       -175.6101
2.228                  0.2673682        -178.174
2.232                  0.2635389        179.2102
2.236                  0.2600257        176.5454
2.24                   0.2568398        173.8351
2.244                  0.2539913        171.0836
2.248                  0.2514889        168.2958
2.252                  0.2493401        165.4771
2.256                  0.2475507        162.6335
2.26                   0.2461245        159.7716
2.264                  0.2450639        156.8981
2.268                  0.2443689        154.0201
2.272                  0.2440378        151.1449
2.276                  0.2440668        148.2795
2.28                   0.2444503         145.431
2.284                  0.2451806        142.6061
2.288                  0.2462486        139.8112
2.292                  0.2476435         137.052
2.296                  0.2493532         134.334
2.3                    0.2513647        131.6617
2.304                  0.2536636        129.0392
2.308                  0.2562352        126.4699
2.312                  0.2590641        123.9565
2.316                  0.2621345         121.501
2.32                   0.2654308        119.1051
2.324                  0.2689371        116.7697
2.328                  0.2726377        114.4952
2.332                  0.2765174        112.2817
2.336                   0.280561        110.1288
2.34                   0.2847543        108.0359
2.344                  0.2890831         106.002
2.348                  0.2935339         104.026
2.352                   0.298094        102.1066