! TOUCHSTONE file generated by CST MICROWAVE STUDIO
! Date and time: Sat May 14 11:42:20 2022
! Project name: AppElm_antenne_dipole_Alumina.cst
! Parameters = {L=41.25; e=0.035; f=2.45e+09; h=1.6; i=0.8; l1=2; lambda=122.449; ls=30; wl=1.7; ws=80}
! Header version: 2018
! Port assignment regex: !\s*Touchstone port\s*([0-9]+)\s*=\s*(CST MWS port|CST DS port)\s*([0-9]+|Zmin|Zmax)\s*\(\"(.*)\"\)(\s*mode\s*([0-9]+))?.*
! Touchstone port assignment:
! Touchstone port 1 = CST MWS port 1 ("")
# GHz S MA R 50
0                      0.9999689              -0
0.004                  0.9999681     -0.07500996
0.008                  0.9999659      -0.1500164
0.012                  0.9999622      -0.2250158
0.016                  0.9999571      -0.3000047
0.02                   0.9999504      -0.3749798
0.024                  0.9999422      -0.4499375
0.028                  0.9999328      -0.5248744
0.032                  0.9999219      -0.5997877
0.036                  0.9999096      -0.6746738
0.04                   0.9998961      -0.7495298
0.044                  0.9998813      -0.8243527
0.048                  0.9998652      -0.8991397
0.052                  0.9998478      -0.9738883
0.056                  0.9998294       -1.048595
0.06                   0.9998099       -1.123259
0.064                  0.9997895       -1.197877
0.068                  0.9997679       -1.272447
0.072                  0.9997455       -1.346967
0.076                  0.9997222       -1.421435
0.08                   0.9996983       -1.495851
0.084                  0.9996735       -1.570212
0.088                  0.9996481       -1.644519
0.092                  0.9996221       -1.718769
0.096                  0.9995956       -1.792962
0.1                    0.9995689       -1.867098
0.104                  0.9995418       -1.941177
0.108                  0.9995144       -2.015198
0.112                  0.9994869       -2.089163
0.116                  0.9994593       -2.163072
0.12                   0.9994318       -2.236925
0.124                  0.9994042       -2.310725
0.128                  0.9993769       -2.384472
0.132                  0.9993499       -2.458167
0.136                  0.9993233       -2.531814
0.14                   0.9992969       -2.605414
0.144                  0.9992712       -2.678969
0.148                   0.999246       -2.752483
0.152                  0.9992214       -2.825959
0.156                  0.9991978       -2.899398
0.16                   0.9991749       -2.972806
0.164                  0.9991529       -3.046187
0.168                  0.9991319       -3.119542
0.172                  0.9991118       -3.192879
0.176                  0.9990931       -3.266199
0.18                   0.9990754        -3.33951
0.184                  0.9990589       -3.412815
0.188                  0.9990439       -3.486119
0.192                  0.9990301       -3.559427
0.196                  0.9990177       -3.632747
0.2                    0.9990068       -3.706082
0.204                  0.9989973       -3.779439
0.208                  0.9989894       -3.852824
0.212                  0.9989829       -3.926243
0.216                  0.9989782       -3.999702
0.22                   0.9989751       -4.073208
0.224                  0.9989736       -4.146767
0.228                  0.9989737       -4.220386
0.232                  0.9989754       -4.294072
0.236                  0.9989788        -4.36783
0.24                   0.9989839       -4.441668
0.244                  0.9989906       -4.515593
0.248                  0.9989989       -4.589611
0.252                  0.9990089        -4.66373
0.256                  0.9990204       -4.737954
0.26                   0.9990336       -4.812292
0.264                  0.9990482       -4.886751
0.268                  0.9990644       -4.961335
0.272                  0.9990819       -5.036053
0.276                  0.9991009        -5.11091
0.28                   0.9991211       -5.185913
0.284                  0.9991428       -5.261066
0.288                  0.9991656       -5.336377
0.292                  0.9991894       -5.411851
0.296                  0.9992145       -5.487493
0.3                    0.9992405       -5.563308
0.304                  0.9992673       -5.639303
0.308                   0.999295        -5.71548
0.312                  0.9993236       -5.791845
0.316                  0.9993526       -5.868402
0.32                   0.9993822       -5.945156
0.324                  0.9994123       -6.022109
0.328                  0.9994428       -6.099264
0.332                  0.9994734       -6.176626
0.336                  0.9995042       -6.254197
0.34                    0.999535       -6.331979
0.344                  0.9995658       -6.409974
0.348                  0.9995961       -6.488185
0.352                  0.9996263       -6.566611
0.356                   0.999656       -6.645254
0.36                   0.9996853       -6.724116
0.364                  0.9997138       -6.803194
0.368                  0.9997415       -6.882492
0.372                  0.9997684       -6.962007
0.376                  0.9997944       -7.041739
0.38                   0.9998192       -7.121686
0.384                  0.9998428       -7.201847
0.388                  0.9998652        -7.28222
0.392                  0.9998862       -7.362803
0.396                  0.9999056       -7.443595
0.4                    0.9999235       -7.524591
0.404                  0.9999397       -7.605787
0.408                  0.9999541       -7.687182
0.412                  0.9999667       -7.768771
0.416                  0.9999774        -7.85055
0.42                    0.999986       -7.932516
0.424                  0.9999927       -8.014664
0.428                  0.9999973       -8.096989
0.432                  0.9999997       -8.179485
0.436                          1       -8.262147
0.44                    0.999998       -8.344972
0.444                  0.9999936       -8.427954
0.448                  0.9999871       -8.511085
0.452                  0.9999782       -8.594363
0.456                  0.9999671        -8.67778
0.46                   0.9999535       -8.761331
0.464                  0.9999379        -8.84501
0.468                  0.9999198       -8.928811
0.472                  0.9998994       -9.012729
0.476                  0.9998769       -9.096759
0.48                   0.9998519       -9.180894
0.484                   0.999825        -9.26513
0.488                   0.999796       -9.349459
0.492                  0.9997648        -9.43388
0.496                  0.9997317       -9.518385
0.5                    0.9996968       -9.602971
0.504                  0.9996598       -9.687633
0.508                  0.9996212       -9.772363
0.512                  0.9995809       -9.857164
0.516                  0.9995392        -9.94203
0.52                   0.9994959       -10.02695
0.524                  0.9994513       -10.11194
0.528                  0.9994056       -10.19698
0.532                  0.9993587       -10.28207
0.536                   0.999311       -10.36721
0.54                   0.9992621       -10.45241
0.544                   0.999213       -10.53765
0.548                  0.9991632       -10.62295
0.552                  0.9991128       -10.70829
0.556                  0.9990622       -10.79369
0.56                   0.9990117       -10.87914
0.564                  0.9989611       -10.96464
0.568                  0.9989106       -11.05019
0.572                  0.9988605       -11.13581
0.576                   0.998811       -11.22149
0.58                    0.998762       -11.30724
0.584                  0.9987139       -11.39306
0.588                  0.9986667       -11.47895
0.592                  0.9986206       -11.56493
0.596                  0.9985757       -11.65099
0.6                    0.9985322       -11.73715
0.604                  0.9984901       -11.82341
0.608                  0.9984498       -11.90979
0.612                   0.998411       -11.99628
0.616                  0.9983742        -12.0829
0.62                   0.9983393       -12.16965
0.624                  0.9983067       -12.25656
0.628                   0.998276       -12.34362
0.632                  0.9982477       -12.43085
0.636                  0.9982217       -12.51826
0.64                   0.9981982       -12.60585
0.644                  0.9981771       -12.69365
0.648                  0.9981586       -12.78167
0.652                  0.9981427       -12.86991
0.656                  0.9981294       -12.95839
0.66                   0.9981187       -13.04712
0.664                  0.9981108       -13.13612
0.668                  0.9981054        -13.2254
0.672                  0.9981028       -13.31497
0.676                  0.9981027       -13.40484
0.68                   0.9981053       -13.49503
0.684                  0.9981104       -13.58556
0.688                   0.998118       -13.67643
0.692                  0.9981281       -13.76765
0.696                  0.9981404       -13.85925
0.7                    0.9981551       -13.95124
0.704                  0.9981721       -14.04362
0.708                   0.998191       -14.13641
0.712                  0.9982119       -14.22962
0.716                  0.9982346       -14.32327
0.72                    0.998259       -14.41736
0.724                  0.9982849       -14.51191
0.728                  0.9983121       -14.60693
0.732                  0.9983407       -14.70242
0.736                  0.9983702       -14.79841
0.74                   0.9984004       -14.89489
0.744                  0.9984314       -14.99187
0.748                  0.9984628       -15.08937
0.752                  0.9984943        -15.1874
0.756                  0.9985261       -15.28595
0.76                   0.9985575       -15.38503
0.764                  0.9985886       -15.48466
0.768                   0.998619       -15.58483
0.772                  0.9986485       -15.68555
0.776                  0.9986771       -15.78683
0.78                   0.9987042       -15.88866
0.784                  0.9987297       -15.99105
0.788                  0.9987535       -16.09401
0.792                  0.9987754       -16.19752
0.796                  0.9987948       -16.30159
0.8                     0.998812       -16.40622
0.804                  0.9988264       -16.51141
0.808                  0.9988379       -16.61716
0.812                  0.9988463       -16.72345
0.816                  0.9988513       -16.83031
0.82                   0.9988529        -16.9377
0.824                  0.9988508       -17.04563
0.828                  0.9988447        -17.1541
0.832                  0.9988346        -17.2631
0.836                  0.9988203       -17.37262
0.84                   0.9988017       -17.48266
0.844                  0.9987785       -17.59321
0.848                  0.9987507       -17.70426
0.852                  0.9987182       -17.81579
0.856                  0.9986808       -17.92781
0.86                   0.9986384        -18.0403
0.864                   0.998591       -18.15327
0.868                  0.9985386       -18.26668
0.872                  0.9984809       -18.38054
0.876                  0.9984181       -18.49483
0.88                   0.9983501       -18.60955
0.884                   0.998277       -18.72469
0.888                  0.9981986       -18.84023
0.892                  0.9981152       -18.95617
0.896                  0.9980266       -19.07249
0.9                    0.9979329       -19.18919
0.904                  0.9978344       -19.30625
0.908                  0.9977309       -19.42368
0.912                  0.9976227       -19.54145
0.916                  0.9975097       -19.65957
0.92                   0.9973924       -19.77802
0.924                  0.9972707        -19.8968
0.928                  0.9971447        -20.0159
0.932                  0.9970147       -20.13532
0.936                  0.9968809       -20.25504
0.94                   0.9967435       -20.37508
0.944                  0.9966027       -20.49541
0.948                  0.9964586       -20.61605
0.952                  0.9963117       -20.73698
0.956                  0.9961619       -20.85821
0.96                   0.9960098       -20.97974
0.964                  0.9958555       -21.10156
0.968                  0.9956992       -21.22369
0.972                  0.9955413       -21.34612
0.976                  0.9953819       -21.46886
0.98                   0.9952215       -21.59192
0.984                  0.9950601        -21.7153
0.988                  0.9948984         -21.839
0.992                  0.9947364       -21.96304
0.996                  0.9945742       -22.08743
1                      0.9944124       -22.21223
1.004                  0.9942511       -22.33733
1.008                  0.9940907       -22.46287
1.012                  0.9939314       -22.58879
1.016                  0.9937734       -22.71512
1.02                   0.9936169       -22.84189
1.024                  0.9934623       -22.96912
1.028                  0.9933098       -23.09685
1.032                  0.9931594       -23.22504
1.036                  0.9930116        -23.3538
1.04                   0.9928662       -23.48303
1.044                  0.9927238       -23.61288
1.048                  0.9925844       -23.74331
1.052                  0.9924481       -23.87437
1.056                  0.9923148       -24.00606
1.06                    0.992185       -24.13839
1.064                  0.9920585       -24.27148
1.068                  0.9919354       -24.40527
1.072                  0.9918158       -24.53982
1.076                  0.9916997       -24.67517
1.08                    0.991587       -24.81133
1.084                  0.9914777       -24.94835
1.088                  0.9913718       -25.08623
1.092                  0.9912692       -25.22508
1.096                  0.9911698        -25.3648
1.1                    0.9910734       -25.50556
1.104                  0.9909799       -25.64732
1.108                  0.9908891        -25.7901
1.112                  0.9908008       -25.93397
1.116                  0.9907148       -26.07896
1.12                   0.9906308       -26.22508
1.124                  0.9905486       -26.37233
1.128                  0.9904677       -26.52081
1.132                   0.990388       -26.67051
1.136                  0.9903091       -26.82147
1.14                   0.9902306       -26.97372
1.144                  0.9901522       -27.12728
1.148                  0.9900731       -27.28219
1.152                  0.9899935       -27.43846
1.156                  0.9899126       -27.59612
1.16                   0.9898299       -27.75519
1.164                  0.9897451        -27.9157
1.168                  0.9896576       -28.07768
1.172                  0.9895669       -28.24113
1.176                  0.9894726       -28.40608
1.18                    0.989374       -28.57256
1.184                  0.9892707       -28.74056
1.188                  0.9891621       -28.91012
1.192                  0.9890477       -29.08125
1.196                  0.9889269       -29.25395
1.2                    0.9887993       -29.42824
1.204                  0.9886642       -29.60414
1.208                   0.988521       -29.78164
1.212                  0.9883694       -29.96076
1.216                  0.9882086        -30.1415
1.22                   0.9880382       -30.32387
1.224                  0.9878576       -30.50787
1.228                  0.9876663       -30.69351
1.232                  0.9874638       -30.88079
1.236                  0.9872496        -31.0697
1.24                   0.9870234       -31.26025
1.244                  0.9867845       -31.45243
1.248                  0.9865323       -31.64624
1.252                  0.9862668       -31.84168
1.256                  0.9859873       -32.03874
1.26                   0.9856935       -32.23741
1.264                  0.9853848       -32.43771
1.268                  0.9850613        -32.6396
1.272                  0.9847224       -32.84308
1.276                  0.9843677       -33.04816
1.28                   0.9839971       -33.25482
1.284                  0.9836103       -33.46305
1.288                  0.9832071       -33.67284
1.292                  0.9827873       -33.88419
1.296                  0.9823507       -34.09708
1.3                    0.9818972       -34.31152
1.304                  0.9814265       -34.52748
1.308                  0.9809389       -34.74498
1.312                  0.9804341       -34.96398
1.316                  0.9799121        -35.1845
1.32                   0.9793728       -35.40653
1.324                  0.9788166       -35.63005
1.328                  0.9782432       -35.85507
1.332                  0.9776527       -36.08159
1.336                  0.9770455       -36.30961
1.34                   0.9764213       -36.53913
1.344                  0.9757806       -36.77014
1.348                  0.9751236       -37.00265
1.352                  0.9744504       -37.23667
1.356                  0.9737612       -37.47222
1.36                   0.9730561       -37.70929
1.364                  0.9723356       -37.94789
1.368                  0.9715999       -38.18806
1.372                  0.9708494       -38.42978
1.376                   0.970084        -38.6731
1.38                   0.9693045       -38.91803
1.384                  0.9685107       -39.16461
1.388                  0.9677035       -39.41284
1.392                  0.9668828       -39.66276
1.396                  0.9660491        -39.9144
1.4                    0.9652025       -40.16782
1.404                  0.9643435       -40.42303
1.408                  0.9634722       -40.68009
1.412                  0.9625893       -40.93904
1.416                  0.9616947       -41.19991
1.42                   0.9607886       -41.46278
1.424                  0.9598716        -41.7277
1.428                  0.9589434       -41.99472
1.432                  0.9580048       -42.26388
1.436                  0.9570553       -42.53529
1.44                   0.9560955       -42.80898
1.444                  0.9551254       -43.08504
1.448                  0.9541449       -43.36354
1.452                  0.9531542       -43.64456
1.456                  0.9521531       -43.92816
1.46                   0.9511416       -44.21444
1.464                  0.9501195       -44.50349
1.468                  0.9490868       -44.79539
1.472                  0.9480431       -45.09023
1.476                  0.9469883        -45.3881
1.48                   0.9459218       -45.68911
1.484                  0.9448435       -45.99334
1.488                  0.9437526        -46.3009
1.492                  0.9426489       -46.61189
1.496                  0.9415316       -46.92642
1.5                    0.9404002        -47.2446
1.504                   0.939254       -47.56653
1.508                   0.938092       -47.89231
1.512                  0.9369135       -48.22207
1.516                  0.9357177        -48.5559
1.52                   0.9345033       -48.89394
1.524                  0.9332694       -49.23629
1.528                  0.9320149       -49.58306
1.532                  0.9307384       -49.93437
1.536                  0.9294391       -50.29032
1.54                   0.9281152       -50.65105
1.544                  0.9267655       -51.01667
1.548                  0.9253884       -51.38729
1.552                  0.9239824       -51.76302
1.556                   0.922546       -52.14399
1.56                   0.9210775       -52.53029
1.564                  0.9195751       -52.92206
1.568                   0.918037        -53.3194
1.572                  0.9164613       -53.72242
1.576                  0.9148464       -54.13123
1.58                     0.91319       -54.54594
1.584                  0.9114903       -54.96666
1.588                   0.909745        -55.3935
1.592                  0.9079523       -55.82657
1.596                    0.90611       -56.26596
1.6                    0.9042159       -56.71178
1.604                  0.9022677       -57.16412
1.608                  0.9002633       -57.62309
1.612                  0.8982004       -58.08878
1.616                  0.8960767        -58.5613
1.62                   0.8938899       -59.04071
1.624                  0.8916374       -59.52715
1.628                  0.8893175       -60.02067
1.632                  0.8869274       -60.52137
1.636                  0.8844649       -61.02935
1.64                   0.8819275       -61.54466
1.644                  0.8793131       -62.06743
1.648                  0.8766193       -62.59771
1.652                  0.8738438       -63.13559
1.656                  0.8709842       -63.68114
1.66                   0.8680384       -64.23444
1.664                   0.865004       -64.79558
1.668                  0.8618788       -65.36463
1.672                   0.858661       -65.94166
1.676                   0.855348       -66.52676
1.68                   0.8519379       -67.11998
1.684                  0.8484286       -67.72142
1.688                  0.8448182       -68.33112
1.692                  0.8411049       -68.94918
1.696                  0.8372865       -69.57568
1.7                    0.8333615       -70.21067
1.704                   0.829328       -70.85423
1.708                  0.8251844       -71.50646
1.712                  0.8209291       -72.16743
1.716                  0.8165608        -72.8372
1.72                   0.8120777       -73.51588
1.724                  0.8074787       -74.20354
1.728                  0.8027626       -74.90026
1.732                  0.7979283       -75.60615
1.736                  0.7929745       -76.32128
1.74                   0.7879005       -77.04577
1.744                  0.7827055       -77.77972
1.748                  0.7773885       -78.52322
1.752                  0.7719492        -79.2764
1.756                  0.7663869       -80.03938
1.76                   0.7607014       -80.81227
1.764                   0.754892        -81.5952
1.768                  0.7489593       -82.38832
1.772                  0.7429027       -83.19177
1.776                  0.7367224       -84.00571
1.78                   0.7304188        -84.8303
1.784                  0.7239924       -85.66572
1.788                  0.7174434       -86.51216
1.792                  0.7107727       -87.36981
1.796                  0.7039809       -88.23887
1.8                    0.6970692       -89.11961
1.804                  0.6900387       -90.01223
1.808                  0.6828904       -90.91699
1.812                  0.6756258       -91.83417
1.816                  0.6682467       -92.76406
1.82                   0.6607546       -93.70698
1.824                  0.6531513       -94.66325
1.828                  0.6454392       -95.63323
1.832                  0.6376202        -96.6173
1.836                  0.6296969       -97.61587
1.84                   0.6216717       -98.62938
1.844                  0.6135477       -99.65828
1.848                  0.6053275       -100.7031
1.852                  0.5970146       -101.7643
1.856                   0.588612       -102.8425
1.86                   0.5801233       -103.9383
1.864                  0.5715527       -105.0524
1.868                  0.5629037       -106.1855
1.872                  0.5541806       -107.3382
1.876                  0.5453881       -108.5115
1.88                   0.5365307       -109.7062
1.884                  0.5276135       -110.9231
1.888                  0.5186415       -112.1633
1.892                  0.5096205       -113.4279
1.896                   0.500556        -114.718
1.9                    0.4914545       -116.0348
1.904                  0.4823221       -117.3795
1.908                  0.4731658       -118.7537
1.912                  0.4639927       -120.1588
1.916                  0.4548103       -121.5963
1.92                   0.4456268       -123.0681
1.924                  0.4364504       -124.5758
1.928                  0.4272901       -126.1216
1.932                  0.4181554       -127.7073
1.936                   0.409056       -129.3353
1.94                   0.4000027       -131.0079
1.944                  0.3910065       -132.7275
1.948                  0.3820794       -134.4969
1.952                  0.3732338       -136.3186
1.956                   0.364483       -138.1956
1.96                   0.3558411        -140.131
1.964                  0.3473231       -142.1277
1.968                  0.3389448       -144.1891
1.972                  0.3307229       -146.3183
1.976                  0.3226751       -148.5186
1.98                   0.3148203       -150.7932
1.984                   0.307178       -153.1453
1.988                  0.2997689       -155.5778
1.992                  0.2926146       -158.0934
1.996                  0.2857375       -160.6944
2                       0.279161       -163.3826
2.004                  0.2729088       -166.1591
2.008                  0.2670053       -169.0242
2.012                  0.2614747       -171.9775
2.016                  0.2563413        -175.017
2.02                   0.2516287       -178.1398
2.024                  0.2473594        178.6586
2.028                  0.2435547         175.384
2.032                  0.2402336        172.0438
2.036                  0.2374125        168.6471
2.04                   0.2351048        165.2042
2.044                  0.2333205        161.7266
2.048                  0.2320655         158.227
2.052                  0.2313415        154.7184
2.056                  0.2311461        151.2144
2.06                   0.2314724        147.7286
2.064                  0.2323093        144.2737
2.068                  0.2336419         140.862
2.072                   0.235452        137.5047
2.076                  0.2377183        134.2114
2.08                   0.2404171        130.9906
2.084                  0.2435229         127.849
2.088                  0.2470089        124.7919
2.092                  0.2508477        121.8231
2.096                  0.2550113        118.9451
2.1                    0.2594723        116.1593
2.104                  0.2642033        113.4657
2.108                  0.2691781        110.8637
2.112                  0.2743712        108.3519
2.116                  0.2797582        105.9282
2.12                   0.2853162        103.5903
2.124                  0.2910233        101.3352
2.128                   0.296859        99.16008
2.132                  0.3028041        97.06164
2.136                  0.3088408         95.0367
2.14                   0.3149525        93.08199
2.144                  0.3211236        91.19429
2.148                  0.3273399        89.37047
2.152                  0.3335882        87.60746
2.156                  0.3398562        85.90231
2.16                   0.3461327        84.25224
2.164                  0.3524075        82.65453
2.168                  0.3586709        81.10662
2.172                  0.3649144        79.60614
2.176                  0.3711298        78.15079
2.18                     0.37731        76.73843
2.184                  0.3834484        75.36704
2.188                  0.3895388        74.03473
2.192                  0.3955757        72.73973
2.196                  0.4015544        71.48038
2.2                    0.4074702        70.25514
2.204                  0.4133192        69.06253
2.208                  0.4190978        67.90121
2.212                  0.4248028        66.76989
2.216                  0.4304316         65.6674
2.22                   0.4359815         64.5926
2.224                  0.4414507        63.54445
2.228                  0.4468372          62.522
2.232                  0.4521397        61.52429
2.236                   0.457357        60.55049
2.24                   0.4624882        59.59979
2.244                  0.4675326        58.67141
2.248                  0.4724899        57.76465
2.252                  0.4773599        56.87884
2.256                  0.4821425        56.01334
2.26                   0.4868381        55.16754
2.264                  0.4914471        54.34088
2.268                  0.4959702        53.53281
2.272                  0.5004081        52.74284
2.276                  0.5047617        51.97045
2.28                   0.5090322        51.21521
2.284                   0.513221        50.47664
2.288                  0.5173292        49.75433
2.292                  0.5213585        49.04787
2.296                  0.5253105        48.35686
2.3                    0.5291868        47.68091
2.304                  0.5329894        47.01967
2.308                  0.5367201        46.37276
2.312                   0.540381        45.73985
2.316                  0.5439739        45.12059
2.32                   0.5475013        44.51464
2.324                  0.5509651        43.92167
2.328                  0.5543676        43.34138
2.332                  0.5577111        42.77344
2.336                  0.5609979        42.21753
2.34                     0.56423        41.67336
2.344                  0.5674102        41.14062
2.348                  0.5705406        40.61899
2.352                  0.5736233         40.1082