! TOUCHSTONE file generated by CST MICROWAVE STUDIO
! Date and time: Sat May 14 11:42:18 2022
! Project name: AppElm_antenne_dipole_Alumina.cst
! Parameters = {L=37.95; e=0.035; f=2.45e+09; h=1.6; i=0.8; l1=2; lambda=122.449; ls=30; wl=1.7; ws=80}
! Header version: 2018
! Port assignment regex: !\s*Touchstone port\s*([0-9]+)\s*=\s*(CST MWS port|CST DS port)\s*([0-9]+|Zmin|Zmax)\s*\(\"(.*)\"\)(\s*mode\s*([0-9]+))?.*
! Touchstone port assignment:
! Touchstone port 1 = CST MWS port 1 ("")
# GHz S MA R 50
0                      0.9999905              -0
0.004                  0.9999879     -0.07591112
0.008                  0.9999803      -0.1518069
0.012                  0.9999677      -0.2276721
0.016                  0.9999501      -0.3034915
0.02                   0.9999276      -0.3792501
0.024                  0.9999003       -0.454933
0.028                   0.999868      -0.5305259
0.032                  0.9998312      -0.6060139
0.036                    0.99979      -0.6813838
0.04                   0.9997441      -0.7566216
0.044                   0.999694      -0.8317144
0.048                  0.9996397      -0.9066493
0.052                  0.9995815      -0.9814145
0.056                  0.9995197       -1.055998
0.06                    0.999454        -1.13039
0.064                  0.9993851       -1.204579
0.068                  0.9993131       -1.278556
0.072                  0.9992383       -1.352312
0.076                  0.9991606       -1.425838
0.08                   0.9990805       -1.499128
0.084                  0.9989983       -1.572174
0.088                  0.9989142       -1.644972
0.092                  0.9988283       -1.717516
0.096                  0.9987411       -1.789802
0.1                    0.9986528       -1.861826
0.104                  0.9985637       -1.933588
0.108                   0.998474       -2.005084
0.112                  0.9983842       -2.076315
0.116                  0.9982942       -2.147282
0.12                   0.9982047       -2.217986
0.124                  0.9981157       -2.288428
0.128                  0.9980276       -2.358612
0.132                  0.9979408       -2.428544
0.136                  0.9978553       -2.498227
0.14                   0.9977716       -2.567668
0.144                  0.9976899       -2.636873
0.148                  0.9976104        -2.70585
0.152                  0.9975334       -2.774609
0.156                  0.9974591       -2.843158
0.16                   0.9973879       -2.911507
0.164                    0.99732       -2.979668
0.168                  0.9972554       -3.047652
0.172                  0.9971946       -3.115472
0.176                  0.9971375       -3.183141
0.18                   0.9970845       -3.250673
0.184                  0.9970357       -3.318082
0.188                  0.9969914       -3.385383
0.192                  0.9969514       -3.452591
0.196                  0.9969162       -3.519722
0.2                    0.9968856       -3.586794
0.204                    0.99686       -3.653821
0.208                  0.9968393       -3.720823
0.212                  0.9968236       -3.787814
0.216                   0.996813       -3.854813
0.22                   0.9968075        -3.92184
0.224                  0.9968072       -3.988908
0.228                  0.9968119        -4.05604
0.232                  0.9968219       -4.123249
0.236                  0.9968368       -4.190557
0.24                   0.9968569       -4.257979
0.244                  0.9968818       -4.325533
0.248                  0.9969119       -4.393238
0.252                  0.9969466       -4.461108
0.256                  0.9969861       -4.529163
0.26                   0.9970302       -4.597416
0.264                  0.9970787       -4.665886
0.268                  0.9971316       -4.734587
0.272                  0.9971886       -4.803534
0.276                  0.9972495       -4.872743
0.28                   0.9973141       -4.942227
0.284                  0.9973823       -5.011997
0.288                  0.9974539       -5.082069
0.292                  0.9975285       -5.152454
0.296                  0.9976061        -5.22316
0.3                    0.9976863       -5.294201
0.304                  0.9977688       -5.365586
0.308                  0.9978534       -5.437322
0.312                  0.9979399       -5.509418
0.316                  0.9980279        -5.58188
0.32                   0.9981172       -5.654714
0.324                  0.9982073       -5.727928
0.328                  0.9982982       -5.801523
0.332                  0.9983896       -5.875503
0.336                  0.9984809        -5.94987
0.34                    0.998572       -6.024627
0.344                  0.9986627       -6.099772
0.348                  0.9987526       -6.175306
0.352                  0.9988414       -6.251227
0.356                  0.9989287       -6.327534
0.36                   0.9990145        -6.40422
0.364                  0.9990981       -6.481284
0.368                  0.9991797        -6.55872
0.372                  0.9992586       -6.636522
0.376                  0.9993349       -6.714683
0.38                    0.999408       -6.793195
0.384                  0.9994778       -6.872049
0.388                  0.9995442       -6.951237
0.392                  0.9996069       -7.030747
0.396                  0.9996654       -7.110571
0.4                    0.9997199       -7.190695
0.404                    0.99977       -7.271108
0.408                  0.9998154       -7.351799
0.412                  0.9998564       -7.432751
0.416                  0.9998923       -7.513953
0.42                   0.9999234        -7.59539
0.424                  0.9999493       -7.677047
0.428                    0.99997        -7.75891
0.432                  0.9999853       -7.840964
0.436                  0.9999953       -7.923192
0.44                           1        -8.00558
0.444                   0.999999       -8.088111
0.448                  0.9999925       -8.170768
0.452                  0.9999807       -8.253537
0.456                  0.9999633       -8.336402
0.46                   0.9999405       -8.419344
0.464                  0.9999121        -8.50235
0.468                  0.9998785       -8.585405
0.472                  0.9998396       -8.668489
0.476                  0.9997956       -8.751593
0.48                   0.9997464       -8.834698
0.484                  0.9996923       -8.917789
0.488                  0.9996335       -9.000853
0.492                  0.9995699        -9.08388
0.496                   0.999502       -9.166849
0.5                    0.9994297       -9.249755
0.504                  0.9993534       -9.332583
0.508                  0.9992733       -9.415321
0.512                  0.9991895       -9.497957
0.516                  0.9991024       -9.580486
0.52                   0.9990121       -9.662895
0.524                  0.9989189       -9.745179
0.528                  0.9988231       -9.827327
0.532                   0.998725       -9.909335
0.536                  0.9986248       -9.991196
0.54                   0.9985229       -10.07291
0.544                  0.9984196       -10.15446
0.548                  0.9983152       -10.23586
0.552                  0.9982098        -10.3171
0.556                  0.9981039       -10.39819
0.56                   0.9979979       -10.47911
0.564                   0.997892       -10.55987
0.568                  0.9977865       -10.64048
0.572                  0.9976817       -10.72094
0.576                   0.997578       -10.80125
0.58                   0.9974756       -10.88142
0.584                  0.9973749       -10.96146
0.588                  0.9972763       -11.04136
0.592                  0.9971799       -11.12115
0.596                   0.997086       -11.20083
0.6                     0.996995       -11.28041
0.604                  0.9969072       -11.35991
0.608                  0.9968225       -11.43933
0.612                  0.9967417       -11.51869
0.616                  0.9966647         -11.598
0.62                   0.9965918       -11.67728
0.624                  0.9965232       -11.75655
0.628                  0.9964592       -11.83581
0.632                  0.9963997        -11.9151
0.636                  0.9963453       -11.99442
0.64                   0.9962959        -12.0738
0.644                  0.9962516       -12.15325
0.648                  0.9962128       -12.23279
0.652                  0.9961793       -12.31245
0.656                  0.9961513       -12.39224
0.66                   0.9961289       -12.47218
0.664                  0.9961122       -12.55231
0.668                  0.9961011       -12.63263
0.672                  0.9960957       -12.71316
0.676                   0.996096       -12.79394
0.68                   0.9961019       -12.87498
0.684                  0.9961135       -12.95631
0.688                  0.9961306       -13.03793
0.692                  0.9961533       -13.11989
0.696                  0.9961812       -13.20219
0.7                    0.9962145       -13.28486
0.704                   0.996253       -13.36792
0.708                  0.9962963       -13.45139
0.712                  0.9963445       -13.53528
0.716                  0.9963974       -13.61962
0.72                   0.9964545       -13.70443
0.724                  0.9965159       -13.78972
0.728                  0.9965813       -13.87552
0.732                  0.9966505       -13.96183
0.736                   0.996723       -14.04867
0.74                   0.9967987       -14.13607
0.744                  0.9968774       -14.22402
0.748                  0.9969586       -14.31255
0.752                  0.9970419       -14.40167
0.756                  0.9971273       -14.49139
0.76                   0.9972144       -14.58172
0.764                  0.9973027       -14.67267
0.768                  0.9973919       -14.76424
0.772                  0.9974817       -14.85645
0.776                  0.9975717        -14.9493
0.78                   0.9976615       -15.04279
0.784                  0.9977509       -15.13694
0.788                  0.9978393       -15.23173
0.792                  0.9979267       -15.32719
0.796                  0.9980123       -15.42329
0.8                     0.998096       -15.52005
0.804                  0.9981774       -15.61746
0.808                  0.9982561       -15.71552
0.812                  0.9983318       -15.81423
0.816                  0.9984041       -15.91358
0.82                   0.9984727       -16.01356
0.824                  0.9985372       -16.11417
0.828                  0.9985974        -16.2154
0.832                   0.998653       -16.31724
0.836                  0.9987035       -16.41969
0.84                    0.998749       -16.52272
0.844                  0.9987888       -16.62633
0.848                  0.9988228       -16.73051
0.852                  0.9988509       -16.83524
0.856                  0.9988727       -16.94051
0.86                   0.9988881        -17.0463
0.864                  0.9988967       -17.15261
0.868                  0.9988986        -17.2594
0.872                  0.9988935       -17.36668
0.876                  0.9988813       -17.47442
0.88                   0.9988619       -17.58259
0.884                   0.998835        -17.6912
0.888                  0.9988009       -17.80022
0.892                  0.9987592       -17.90962
0.896                  0.9987099        -18.0194
0.9                    0.9986531       -18.12953
0.904                  0.9985889          -18.24
0.908                   0.998517       -18.35078
0.912                  0.9984379       -18.46187
0.916                  0.9983513       -18.57324
0.92                   0.9982574       -18.68488
0.924                  0.9981562       -18.79676
0.928                  0.9980481       -18.90888
0.932                   0.997933       -19.02121
0.936                  0.9978112       -19.13374
0.94                   0.9976827       -19.24646
0.944                   0.997548       -19.35934
0.948                  0.9974072       -19.47238
0.952                  0.9972604       -19.58557
0.956                  0.9971081       -19.69888
0.96                   0.9969503       -19.81232
0.964                  0.9967876       -19.92587
0.968                  0.9966202       -20.03951
0.972                  0.9964483       -20.15325
0.976                  0.9962723       -20.26708
0.98                   0.9960925       -20.38098
0.984                  0.9959094       -20.49496
0.988                  0.9957232       -20.60901
0.992                  0.9955344       -20.72313
0.996                  0.9953433       -20.83731
1                      0.9951503       -20.95157
1.004                  0.9949558       -21.06588
1.008                  0.9947602        -21.1803
1.012                  0.9945639       -21.29477
1.016                  0.9943671       -21.40933
1.02                   0.9941706       -21.52399
1.024                  0.9939745       -21.63874
1.028                  0.9937792       -21.75357
1.032                  0.9935852       -21.86856
1.036                  0.9933928       -21.98366
1.04                   0.9932024       -22.09893
1.044                  0.9930144       -22.21436
1.048                  0.9928291       -22.32998
1.052                  0.9926469       -22.44579
1.056                   0.992468       -22.56183
1.06                   0.9922929        -22.6781
1.064                  0.9921218       -22.79462
1.068                  0.9919551       -22.91145
1.072                  0.9917929       -23.02857
1.076                  0.9916355       -23.14605
1.08                   0.9914832       -23.26389
1.084                  0.9913362        -23.3821
1.088                  0.9911947       -23.50076
1.092                  0.9910589       -23.61985
1.096                  0.9909288        -23.7394
1.1                    0.9908047       -23.85951
1.104                  0.9906866       -23.98013
1.108                  0.9905746       -24.10135
1.112                  0.9904688       -24.22317
1.116                  0.9903692       -24.34565
1.12                   0.9902758       -24.46879
1.124                  0.9901886       -24.59263
1.128                  0.9901073       -24.71723
1.132                  0.9900322        -24.8426
1.136                  0.9899631       -24.96879
1.14                   0.9898997       -25.09583
1.144                  0.9898419       -25.22375
1.148                  0.9897896       -25.35259
1.152                  0.9897426       -25.48238
1.156                  0.9897006       -25.61316
1.16                   0.9896633       -25.74495
1.164                  0.9896304       -25.87779
1.168                  0.9896017       -26.01172
1.172                  0.9895769       -26.14675
1.176                  0.9895554       -26.28293
1.18                    0.989537       -26.42028
1.184                  0.9895213       -26.55883
1.188                  0.9895078       -26.69861
1.192                  0.9894962       -26.83965
1.196                  0.9894857       -26.98197
1.2                    0.9894762       -27.12559
1.204                   0.989467       -27.27054
1.208                  0.9894577       -27.41685
1.212                  0.9894477       -27.56452
1.216                  0.9894364       -27.71358
1.22                   0.9894234       -27.86405
1.224                  0.9894081       -28.01595
1.228                  0.9893899       -28.16928
1.232                  0.9893681       -28.32408
1.236                  0.9893425       -28.48033
1.24                   0.9893121       -28.63806
1.244                  0.9892764       -28.79728
1.248                  0.9892352         -28.958
1.252                  0.9891875       -29.12021
1.256                  0.9891329       -29.28393
1.26                   0.9890707       -29.44916
1.264                  0.9890004        -29.6159
1.268                  0.9889214       -29.78415
1.272                  0.9888333       -29.95391
1.276                  0.9887354       -30.12518
1.28                   0.9886271       -30.29796
1.284                  0.9885081       -30.47224
1.288                  0.9883778       -30.64801
1.292                  0.9882356       -30.82527
1.296                  0.9880811       -31.00401
1.3                     0.987914       -31.18423
1.304                  0.9877335        -31.3659
1.308                  0.9875395       -31.54902
1.312                  0.9873314       -31.73359
1.316                  0.9871091       -31.91957
1.32                    0.986872       -32.10697
1.324                  0.9866198       -32.29576
1.328                  0.9863523       -32.48594
1.332                  0.9860692       -32.67749
1.336                  0.9857703       -32.87039
1.34                   0.9854553       -33.06462
1.344                   0.985124       -33.26018
1.348                  0.9847761       -33.45704
1.352                  0.9844119       -33.65519
1.356                  0.9840308       -33.85462
1.36                   0.9836329        -34.0553
1.364                  0.9832184       -34.25722
1.368                  0.9827868       -34.46037
1.372                  0.9823386       -34.66473
1.376                  0.9818735       -34.87029
1.38                   0.9813917       -35.07704
1.384                  0.9808934       -35.28496
1.388                  0.9803783       -35.49404
1.392                   0.979847       -35.70428
1.396                  0.9792994       -35.91566
1.4                    0.9787359       -36.12816
1.404                  0.9781565        -36.3418
1.408                  0.9775616       -36.55656
1.412                  0.9769514       -36.77243
1.416                  0.9763262       -36.98943
1.42                   0.9756863       -37.20754
1.424                  0.9750322       -37.42677
1.428                  0.9743638       -37.64711
1.432                  0.9736818        -37.8686
1.436                  0.9729866       -38.09119
1.44                   0.9722784       -38.31494
1.444                  0.9715576       -38.53985
1.448                  0.9708247       -38.76592
1.452                  0.9700802       -38.99318
1.456                  0.9693241       -39.22164
1.46                   0.9685574       -39.45132
1.464                  0.9677798       -39.68226
1.468                  0.9669924       -39.91446
1.472                  0.9661952       -40.14797
1.476                  0.9653888       -40.38282
1.48                   0.9645734       -40.61903
1.484                  0.9637495       -40.85665
1.488                  0.9629175       -41.09571
1.492                  0.9620777       -41.33626
1.496                  0.9612303       -41.57835
1.5                    0.9603758       -41.82201
1.504                  0.9595145        -42.0673
1.508                  0.9586466       -42.31427
1.512                  0.9577724       -42.56298
1.516                  0.9568923       -42.81349
1.52                    0.956006       -43.06585
1.524                  0.9551139       -43.32014
1.528                  0.9542162       -43.57641
1.532                   0.953313       -43.83474
1.536                  0.9524042       -44.09519
1.54                     0.95149       -44.35783
1.544                  0.9505699       -44.62275
1.548                  0.9496444       -44.89002
1.552                  0.9487131       -45.15971
1.556                  0.9477758       -45.43191
1.56                   0.9468324       -45.70671
1.564                  0.9458825       -45.98418
1.568                  0.9449257       -46.26441
1.572                  0.9439619        -46.5475
1.576                  0.9429903       -46.83352
1.58                   0.9420109       -47.12257
1.584                  0.9410228       -47.41475
1.588                  0.9400254       -47.71013
1.592                  0.9390182       -48.00882
1.596                  0.9380005       -48.31091
1.6                    0.9369713        -48.6165
1.604                  0.9359302       -48.92567
1.608                  0.9348759       -49.23853
1.612                  0.9338077       -49.55516
1.616                  0.9327246       -49.87568
1.62                   0.9316255       -50.20017
1.624                  0.9305093       -50.52873
1.628                   0.929375       -50.86145
1.632                  0.9282211       -51.19842
1.636                  0.9270466       -51.53975
1.64                   0.9258501       -51.88552
1.644                  0.9246303       -52.23584
1.648                  0.9233858       -52.59077
1.652                  0.9221151       -52.95045
1.656                  0.9208167       -53.31492
1.66                    0.919489        -53.6843
1.664                  0.9181308       -54.05866
1.668                    0.91674       -54.43811
1.672                  0.9153151       -54.82271
1.676                  0.9138547       -55.21255
1.68                   0.9123568       -55.60772
1.684                  0.9108197        -56.0083
1.688                  0.9092416       -56.41437
1.692                  0.9076207       -56.82601
1.696                  0.9059554       -57.24328
1.7                    0.9042436       -57.66627
1.704                  0.9024835       -58.09504
1.708                  0.9006735       -58.52968
1.712                  0.8988112       -58.97025
1.716                  0.8968952       -59.41681
1.72                   0.8949234       -59.86943
1.724                  0.8928939       -60.32817
1.728                  0.8908048       -60.79312
1.732                  0.8886543       -61.26432
1.736                  0.8864405       -61.74182
1.74                   0.8841615        -62.2257
1.744                  0.8818152       -62.71601
1.748                  0.8794003        -63.2128
1.752                  0.8769145       -63.71613
1.756                  0.8743561       -64.22605
1.76                   0.8717235       -64.74262
1.764                  0.8690148       -65.26589
1.768                  0.8662281       -65.79592
1.772                  0.8633621       -66.33274
1.776                  0.8604149       -66.87641
1.78                   0.8573849         -67.427
1.784                  0.8542705       -67.98452
1.788                  0.8510702       -68.54905
1.792                  0.8477824       -69.12062
1.796                   0.844406       -69.69929
1.8                    0.8409392       -70.28511
1.804                  0.8373811       -70.87811
1.808                  0.8337299       -71.47837
1.812                  0.8299848       -72.08594
1.816                  0.8261445       -72.70084
1.82                   0.8222078       -73.32318
1.824                  0.8181737       -73.95295
1.828                  0.8140414       -74.59025
1.832                  0.8098099       -75.23512
1.836                  0.8054784       -75.88765
1.84                   0.8010461       -76.54785
1.844                  0.7965123       -77.21583
1.848                  0.7918765       -77.89165
1.852                  0.7871381       -78.57537
1.856                  0.7822967       -79.26706
1.86                    0.777352       -79.96683
1.864                  0.7723035       -80.67473
1.868                  0.7671513       -81.39088
1.872                  0.7618952       -82.11536
1.876                  0.7565352       -82.84824
1.88                   0.7510713       -83.58965
1.884                  0.7455038        -84.3397
1.888                  0.7398328        -85.0985
1.892                  0.7340589       -85.86617
1.896                  0.7281822       -86.64284
1.9                    0.7222038       -87.42864
1.904                  0.7161238       -88.22373
1.908                  0.7099432       -89.02827
1.912                  0.7036629       -89.84241
1.916                  0.6972839       -90.66632
1.92                   0.6908072        -91.5002
1.924                   0.684234       -92.34422
1.928                  0.6775654       -93.19862
1.932                  0.6708031        -94.0636
1.936                  0.6639483       -94.93939
1.94                   0.6570029       -95.82628
1.944                  0.6499686        -96.7245
1.948                   0.642847       -97.63433
1.952                  0.6356404       -98.55609
1.956                  0.6283507       -99.49008
1.96                     0.62098       -100.4366
1.964                   0.613531       -101.3961
1.968                   0.606006        -102.369
1.972                  0.5984076       -103.3555
1.976                  0.5907386       -104.3563
1.98                   0.5830019       -105.3716
1.984                  0.5752003        -106.402
1.988                  0.5673373       -107.4481
1.992                  0.5594161       -108.5104
1.996                  0.5514403       -109.5894
2                      0.5434134       -110.6859
2.004                  0.5353393       -111.8004
2.008                   0.527222       -112.9337
2.012                  0.5190657       -114.0865
2.016                  0.5108748       -115.2597
2.02                   0.5026538        -116.454
2.024                  0.4944077       -117.6704
2.028                  0.4861413       -118.9098
2.032                  0.4778601       -120.1733
2.036                  0.4695693       -121.4619
2.04                   0.4612749       -122.7768
2.044                  0.4529828       -124.1192
2.048                  0.4446993       -125.4903
2.052                  0.4364311       -126.8916
2.056                  0.4281851       -128.3245
2.06                   0.4199685       -129.7904
2.064                  0.4117892        -131.291
2.068                  0.4036549       -132.8279
2.072                  0.3955741       -134.4029
2.076                  0.3875559       -136.0178
2.08                   0.3796094       -137.6745
2.084                  0.3717444       -139.3751
2.088                   0.363971       -141.1214
2.092                  0.3563003       -142.9157
2.096                  0.3487435       -144.7601
2.1                    0.3413125       -146.6566
2.104                  0.3340197       -148.6076
2.108                  0.3268781       -150.6151
2.112                  0.3199015       -152.6811
2.116                   0.313104       -154.8078
2.12                   0.3065003       -156.9968
2.124                  0.3001057         -159.25
2.128                   0.293936       -161.5686
2.132                  0.2880074       -163.9538
2.136                  0.2823363       -166.4061
2.14                   0.2769394       -168.9259
2.144                  0.2718336       -171.5127
2.148                  0.2670355       -174.1656
2.152                  0.2625614       -176.8828
2.156                  0.2584273       -179.6618
2.16                    0.254648        177.5007
2.164                  0.2512378        174.6089
2.168                  0.2482094         171.668
2.172                  0.2455739        168.6839
2.176                  0.2433405        165.6635
2.18                   0.2415165        162.6142
2.184                  0.2401067        159.5443
2.188                  0.2391134        156.4623
2.192                  0.2385366        153.3772
2.196                  0.2383735        150.2979
2.2                    0.2386186        147.2335
2.204                  0.2392642        144.1925
2.208                  0.2403001         141.183
2.212                  0.2417139        138.2128
2.216                  0.2434914        135.2886
2.22                   0.2456172        132.4165
2.224                   0.248074        129.6017
2.228                  0.2508439        126.8483
2.232                  0.2539083        124.1599
2.236                   0.257248         121.539
2.24                    0.260844        118.9873
2.244                  0.2646768        116.5058
2.248                  0.2687278        114.0951
2.252                  0.2729782        111.7548
2.256                  0.2774102        109.4845
2.26                   0.2820063        107.2829
2.264                  0.2867499        105.1488
2.268                  0.2916251        103.0805
2.272                  0.2966167        101.0762
2.276                  0.3017106        99.13392
2.28                    0.306893        97.25155
2.284                  0.3121513        95.42701
2.288                  0.3174737        93.65813
2.292                  0.3228488        91.94273
2.296                  0.3282661        90.27869
2.3                    0.3337159        88.66392
2.304                  0.3391891        87.09637
2.308                  0.3446771        85.57406
2.312                  0.3501722         84.0951
2.316                   0.355667        82.65763
2.32                   0.3611545        81.25992
2.324                  0.3666287        79.90027
2.328                  0.3720837        78.57707
2.332                  0.3775141        77.28886
2.336                   0.382915        76.03414
2.34                   0.3882818        74.81158
2.344                  0.3936105        73.61986
2.348                   0.398897        72.45777
2.352                  0.4041382        71.32415