! TOUCHSTONE file generated by CST MICROWAVE STUDIO
! Date and time: Sat May 14 11:42:13 2022
! Project name: AppElm_antenne_dipole_Alumina.cst
! Parameters = {L=29.7; e=0.035; f=2.45e+09; h=1.6; i=0.8; l1=2; lambda=122.449; ls=30; wl=1.7; ws=80}
! Header version: 2018
! Port assignment regex: !\s*Touchstone port\s*([0-9]+)\s*=\s*(CST MWS port|CST DS port)\s*([0-9]+|Zmin|Zmax)\s*\(\"(.*)\"\)(\s*mode\s*([0-9]+))?.*
! Touchstone port assignment:
! Touchstone port 1 = CST MWS port 1 ("")
# GHz S MA R 50
0                       0.998881              -0
0.004                  0.9988815     -0.06228951
0.008                  0.9988829      -0.1245818
0.012                  0.9988853      -0.1868798
0.016                  0.9988885      -0.2491861
0.02                   0.9988926      -0.3115037
0.024                  0.9988978      -0.3738352
0.028                  0.9989038      -0.4361835
0.032                  0.9989109      -0.4985512
0.036                  0.9989186      -0.5609413
0.04                   0.9989273      -0.6233561
0.044                  0.9989368      -0.6857984
0.048                  0.9989473      -0.7482709
0.052                  0.9989586      -0.8107762
0.056                  0.9989706      -0.8733167
0.06                   0.9989834      -0.9358952
0.064                   0.998997      -0.9985137
0.068                  0.9990114       -1.061175
0.072                  0.9990264       -1.123881
0.076                  0.9990422       -1.186635
0.08                   0.9990587       -1.249438
0.084                  0.9990758       -1.312293
0.088                  0.9990935       -1.375202
0.092                  0.9991118       -1.438167
0.096                  0.9991307        -1.50119
0.1                    0.9991501       -1.564273
0.104                    0.99917       -1.627417
0.108                  0.9991903       -1.690625
0.112                  0.9992111       -1.753898
0.116                  0.9992323       -1.817238
0.12                   0.9992539       -1.880646
0.124                  0.9992758       -1.944124
0.128                   0.999298       -2.007674
0.132                  0.9993203       -2.071296
0.136                   0.999343       -2.134991
0.14                   0.9993657       -2.198762
0.144                  0.9993886       -2.262609
0.148                  0.9994117       -2.326533
0.152                  0.9994347       -2.390534
0.156                  0.9994579       -2.454615
0.16                    0.999481       -2.518774
0.164                   0.999504       -2.583014
0.168                  0.9995269       -2.647334
0.172                  0.9995497       -2.711735
0.176                  0.9995724       -2.776216
0.18                   0.9995947        -2.84078
0.184                   0.999617       -2.905426
0.188                  0.9996388       -2.970153
0.192                  0.9996604       -3.034962
0.196                  0.9996815       -3.099853
0.2                    0.9997024       -3.164825
0.204                  0.9997227       -3.229879
0.208                  0.9997425       -3.295013
0.212                  0.9997619       -3.360228
0.216                  0.9997807       -3.425524
0.22                    0.999799       -3.490899
0.224                  0.9998166       -3.556352
0.228                  0.9998336       -3.621884
0.232                  0.9998498       -3.687493
0.236                  0.9998654       -3.753179
0.24                   0.9998803       -3.818941
0.244                  0.9998944       -3.884777
0.248                  0.9999078       -3.950685
0.252                  0.9999202       -4.016668
0.256                   0.999932       -4.082721
0.26                   0.9999428       -4.148844
0.264                  0.9999527       -4.215037
0.268                  0.9999619       -4.281296
0.272                  0.9999699       -4.347622
0.276                  0.9999771       -4.414012
0.28                   0.9999834       -4.480465
0.284                  0.9999886       -4.546981
0.288                  0.9999929       -4.613557
0.292                  0.9999961       -4.680191
0.296                  0.9999984       -4.746882
0.3                    0.9999997       -4.813629
0.304                          1       -4.880429
0.308                  0.9999993       -4.947282
0.312                  0.9999974       -5.014186
0.316                  0.9999946       -5.081138
0.32                   0.9999908       -5.148138
0.324                  0.9999859       -5.215183
0.328                  0.9999799       -5.282274
0.332                  0.9999731       -5.349404
0.336                  0.9999651       -5.416577
0.34                    0.999956        -5.48379
0.344                  0.9999463       -5.551039
0.348                  0.9999353       -5.618324
0.352                  0.9999233       -5.685644
0.356                  0.9999105       -5.752996
0.36                   0.9998968       -5.820381
0.364                   0.999882       -5.887794
0.368                  0.9998664       -5.955237
0.372                  0.9998498       -6.022707
0.376                  0.9998325       -6.090202
0.38                   0.9998143       -6.157723
0.384                  0.9997953       -6.225266
0.388                  0.9997754       -6.292832
0.392                  0.9997548        -6.36042
0.396                  0.9997335       -6.428028
0.4                    0.9997115       -6.495655
0.404                  0.9996888         -6.5633
0.408                  0.9996655       -6.630963
0.412                  0.9996417       -6.698642
0.416                  0.9996172       -6.766339
0.42                   0.9995923       -6.834051
0.424                  0.9995668       -6.901778
0.428                  0.9995408        -6.96952
0.432                  0.9995145       -7.037277
0.436                  0.9994877       -7.105048
0.44                   0.9994607       -7.172834
0.444                  0.9994332       -7.240635
0.448                  0.9994057       -7.308448
0.452                  0.9993778       -7.376278
0.456                  0.9993499       -7.444122
0.46                   0.9993218       -7.511981
0.464                  0.9992936       -7.579857
0.468                  0.9992654       -7.647749
0.472                  0.9992371       -7.715659
0.476                   0.999209       -7.783587
0.48                   0.9991809       -7.851536
0.484                   0.999153       -7.919501
0.488                  0.9991252       -7.987491
0.492                  0.9990977       -8.055503
0.496                  0.9990705       -8.123537
0.5                    0.9990437       -8.191598
0.504                  0.9990171       -8.259686
0.508                  0.9989909       -8.327805
0.512                  0.9989653       -8.395952
0.516                  0.9989401       -8.464134
0.52                   0.9989154        -8.53235
0.524                  0.9988913       -8.600603
0.528                  0.9988678       -8.668896
0.532                   0.998845       -8.737228
0.536                  0.9988228       -8.805607
0.54                   0.9988013       -8.874031
0.544                  0.9987806       -8.942504
0.548                  0.9987608       -9.011031
0.552                  0.9987418       -9.079612
0.556                  0.9987233       -9.148252
0.56                   0.9987061       -9.216951
0.564                  0.9986896       -9.285715
0.568                  0.9986741       -9.354547
0.572                  0.9986596       -9.423449
0.576                   0.998646       -9.492424
0.58                   0.9986335       -9.561477
0.584                  0.9986219        -9.63061
0.588                  0.9986115       -9.699829
0.592                  0.9986021       -9.769134
0.596                  0.9985937       -9.838531
0.6                    0.9985866       -9.908022
0.604                  0.9985804       -9.977615
0.608                  0.9985754       -10.04731
0.612                  0.9985715       -10.11711
0.616                  0.9985687       -10.18702
0.62                    0.998567       -10.25705
0.624                  0.9985665       -10.32719
0.628                  0.9985671       -10.39746
0.632                  0.9985688       -10.46785
0.636                  0.9985716       -10.53837
0.64                   0.9985756       -10.60903
0.644                  0.9985806       -10.67982
0.648                  0.9985868       -10.75076
0.652                   0.998594       -10.82184
0.656                  0.9986022       -10.89307
0.66                   0.9986116       -10.96446
0.664                  0.9986219         -11.036
0.668                  0.9986333       -11.10771
0.672                  0.9986455       -11.17958
0.676                  0.9986587       -11.25162
0.68                   0.9986727       -11.32383
0.684                  0.9986878       -11.39622
0.688                  0.9987038       -11.46879
0.692                  0.9987205       -11.54154
0.696                   0.998738       -11.61448
0.7                    0.9987561       -11.68761
0.704                   0.998775       -11.76093
0.708                  0.9987946       -11.83446
0.712                  0.9988148       -11.90818
0.716                  0.9988356        -11.9821
0.72                    0.998857       -12.05623
0.724                  0.9988787       -12.13058
0.728                  0.9989008       -12.20513
0.732                  0.9989233        -12.2799
0.736                  0.9989463       -12.35489
0.74                   0.9989694        -12.4301
0.744                  0.9989928       -12.50553
0.748                  0.9990164       -12.58118
0.752                    0.99904       -12.65706
0.756                  0.9990636       -12.73318
0.76                   0.9990874       -12.80952
0.764                   0.999111       -12.88609
0.768                  0.9991344        -12.9629
0.772                  0.9991577       -13.03995
0.776                  0.9991808       -13.11724
0.78                   0.9992035       -13.19476
0.784                  0.9992257       -13.27252
0.788                  0.9992476       -13.35053
0.792                   0.999269       -13.42878
0.796                  0.9992899       -13.50727
0.8                      0.99931         -13.586
0.804                  0.9993296       -13.66498
0.808                  0.9993484       -13.74421
0.812                  0.9993664       -13.82368
0.816                  0.9993836       -13.90339
0.82                   0.9993998       -13.98335
0.824                  0.9994149       -14.06356
0.828                  0.9994292         -14.144
0.832                  0.9994423        -14.2247
0.836                  0.9994543       -14.30564
0.84                    0.999465       -14.38682
0.844                  0.9994746       -14.46825
0.848                  0.9994828       -14.54991
0.852                  0.9994896       -14.63182
0.856                  0.9994951       -14.71397
0.86                   0.9994991       -14.79636
0.864                  0.9995016       -14.87898
0.868                  0.9995026       -14.96184
0.872                   0.999502       -15.04493
0.876                  0.9994999       -15.12826
0.88                   0.9994959       -15.21183
0.884                  0.9994903       -15.29562
0.888                  0.9994831       -15.37964
0.892                  0.9994741       -15.46389
0.896                  0.9994632       -15.54835
0.9                    0.9994506       -15.63305
0.904                  0.9994361       -15.71797
0.908                  0.9994199        -15.8031
0.912                  0.9994017       -15.88845
0.916                  0.9993817       -15.97402
0.92                   0.9993597        -16.0598
0.924                  0.9993358       -16.14579
0.928                    0.99931       -16.23199
0.932                  0.9992824       -16.31839
0.936                  0.9992528         -16.405
0.94                   0.9992212       -16.49181
0.944                  0.9991878       -16.57882
0.948                  0.9991525       -16.66603
0.952                  0.9991152       -16.75343
0.956                  0.9990761       -16.84102
0.96                   0.9990351       -16.92881
0.964                  0.9989922       -17.01679
0.968                  0.9989475       -17.10495
0.972                  0.9989009       -17.19331
0.976                  0.9988526       -17.28184
0.98                   0.9988025       -17.37056
0.984                  0.9987508       -17.45946
0.988                  0.9986972       -17.54854
0.992                   0.998642       -17.63779
0.996                  0.9985853       -17.72723
1                      0.9985269       -17.81683
1.004                   0.998467       -17.90662
1.008                  0.9984057       -17.99657
1.012                  0.9983429        -18.0867
1.016                  0.9982786       -18.17701
1.02                   0.9982132       -18.26747
1.024                  0.9981463       -18.35812
1.028                  0.9980782        -18.4489
1.032                  0.9980091       -18.53991
1.036                  0.9979386       -18.63108
1.04                   0.9978673       -18.72239
1.044                   0.997795       -18.81388
1.048                  0.9977216       -18.90554
1.052                  0.9976476        -18.9974
1.056                  0.9975727       -19.08941
1.06                   0.9974971       -19.18162
1.064                  0.9974209       -19.27396
1.068                  0.9973441       -19.36653
1.072                  0.9972668       -19.45923
1.076                   0.997189       -19.55212
1.08                   0.9971109       -19.64523
1.084                  0.9970326        -19.7385
1.088                   0.996954       -19.83196
1.092                  0.9968752       -19.92562
1.096                  0.9967965       -20.01947
1.1                    0.9967177       -20.11353
1.104                  0.9966389       -20.20779
1.108                  0.9965604       -20.30224
1.112                  0.9964822        -20.3969
1.116                   0.996404       -20.49178
1.12                   0.9963263       -20.58692
1.124                  0.9962491       -20.68221
1.128                  0.9961722       -20.77778
1.132                   0.996096       -20.87357
1.136                  0.9960204        -20.9696
1.14                   0.9959455       -21.06587
1.144                  0.9958713       -21.16239
1.148                  0.9957979       -21.25917
1.152                  0.9957253        -21.3562
1.156                  0.9956537       -21.45351
1.16                   0.9955831       -21.55109
1.164                  0.9955134       -21.64895
1.168                  0.9954447        -21.7471
1.172                  0.9953771       -21.84555
1.176                  0.9953107       -21.94431
1.18                   0.9952455       -22.04337
1.184                  0.9951813       -22.14275
1.188                  0.9951184       -22.24246
1.192                  0.9950568        -22.3425
1.196                  0.9949966       -22.44288
1.2                    0.9949374       -22.54361
1.204                  0.9948796        -22.6447
1.208                  0.9948231       -22.74616
1.212                   0.994768         -22.848
1.216                  0.9947141       -22.95022
1.22                   0.9946616       -23.05283
1.224                  0.9946104       -23.15584
1.228                  0.9945605       -23.25927
1.232                  0.9945117       -23.36312
1.236                  0.9944645        -23.4674
1.24                   0.9944183       -23.57211
1.244                  0.9943734       -23.67727
1.248                  0.9943296       -23.78289
1.252                   0.994287       -23.88898
1.256                  0.9942456       -23.99554
1.26                   0.9942051       -24.10258
1.264                  0.9941657       -24.21012
1.268                  0.9941271       -24.31816
1.272                  0.9940896       -24.42672
1.276                  0.9940528        -24.5358
1.28                   0.9940166        -24.6454
1.284                  0.9939814       -24.75555
1.288                  0.9939467       -24.86624
1.292                  0.9939125       -24.97749
1.296                  0.9938788       -25.08931
1.3                    0.9938453       -25.20171
1.304                  0.9938123       -25.31468
1.308                  0.9937792       -25.42825
1.312                  0.9937463       -25.54242
1.316                  0.9937133        -25.6572
1.32                   0.9936803       -25.77259
1.324                  0.9936469       -25.88861
1.328                  0.9936132       -26.00527
1.332                   0.993579       -26.12256
1.336                  0.9935441        -26.2405
1.34                   0.9935084        -26.3591
1.344                   0.993472       -26.47835
1.348                  0.9934345       -26.59828
1.352                  0.9933959       -26.71889
1.356                  0.9933561       -26.84017
1.36                   0.9933149       -26.96214
1.364                  0.9932721       -27.08481
1.368                  0.9932276       -27.20818
1.372                  0.9931813       -27.33225
1.376                   0.993133       -27.45704
1.38                   0.9930826       -27.58254
1.384                  0.9930299       -27.70876
1.388                  0.9929749       -27.83572
1.392                  0.9929172        -27.9634
1.396                   0.992857       -28.09181
1.4                    0.9927937       -28.22098
1.404                  0.9927275       -28.35088
1.408                  0.9926583       -28.48152
1.412                  0.9925856       -28.61292
1.416                  0.9925095       -28.74507
1.42                   0.9924299       -28.87798
1.424                  0.9923465       -29.01165
1.428                  0.9922592       -29.14607
1.432                  0.9921679       -29.28126
1.436                  0.9920724       -29.41722
1.44                   0.9919726       -29.55395
1.444                  0.9918685       -29.69144
1.448                  0.9917596        -29.8297
1.452                  0.9916461       -29.96874
1.456                  0.9915277       -30.10855
1.46                   0.9914044       -30.24913
1.464                   0.991276       -30.39048
1.468                  0.9911424       -30.53261
1.472                  0.9910035       -30.67552
1.476                   0.990859       -30.81921
1.48                    0.990709       -30.96367
1.484                  0.9905533        -31.1089
1.488                  0.9903919       -31.25491
1.492                  0.9902246       -31.40169
1.496                  0.9900514       -31.54925
1.5                     0.989872       -31.69759
1.504                  0.9896866        -31.8467
1.508                  0.9894948       -31.99658
1.512                  0.9892968       -32.14723
1.516                  0.9890924       -32.29866
1.52                   0.9888816       -32.45087
1.524                  0.9886643       -32.60384
1.528                  0.9884404       -32.75758
1.532                    0.98821       -32.91209
1.536                  0.9879729       -33.06737
1.54                    0.987729       -33.22343
1.544                  0.9874784       -33.38025
1.548                   0.987221       -33.53784
1.552                   0.986957        -33.6962
1.556                  0.9866859       -33.85533
1.56                   0.9864081       -34.01523
1.564                  0.9861235        -34.1759
1.568                   0.985832       -34.33733
1.572                  0.9855337       -34.49954
1.576                  0.9852285       -34.66252
1.58                   0.9849165       -34.82627
1.584                  0.9845976       -34.99081
1.588                   0.984272        -35.1561
1.592                  0.9839396       -35.32219
1.596                  0.9836007       -35.48904
1.6                    0.9832548       -35.65669
1.604                  0.9829023       -35.82512
1.608                   0.982543       -35.99433
1.612                  0.9821774       -36.16434
1.616                  0.9818053       -36.33514
1.62                   0.9814266       -36.50674
1.624                  0.9810414       -36.67916
1.628                  0.9806499       -36.85238
1.632                  0.9802521       -37.02642
1.636                  0.9798481       -37.20127
1.64                    0.979438       -37.37696
1.644                  0.9790217       -37.55349
1.648                  0.9785995       -37.73085
1.652                  0.9781713       -37.90907
1.656                  0.9777372       -38.08815
1.66                   0.9772972        -38.2681
1.664                  0.9768517       -38.44893
1.668                  0.9764005       -38.63064
1.672                  0.9759436       -38.81326
1.676                  0.9754815       -38.99678
1.68                   0.9750138       -39.18124
1.684                  0.9745407       -39.36662
1.688                  0.9740625       -39.55296
1.692                  0.9735791       -39.74026
1.696                  0.9730905       -39.92854
1.7                     0.972597       -40.11781
1.704                  0.9720984       -40.30809
1.708                  0.9715949        -40.4994
1.712                  0.9710866       -40.69175
1.716                  0.9705735       -40.88515
1.72                   0.9700556       -41.07963
1.724                   0.969533       -41.27521
1.728                  0.9690058       -41.47191
1.732                  0.9684741       -41.66974
1.736                  0.9679375       -41.86874
1.74                   0.9673965        -42.0689
1.744                  0.9668511       -42.27028
1.748                  0.9663009       -42.47288
1.752                  0.9657462       -42.67672
1.756                   0.965187       -42.88184
1.76                   0.9646233       -43.08826
1.764                   0.964055       -43.29599
1.768                   0.963482       -43.50508
1.772                  0.9629043       -43.71554
1.776                  0.9623221        -43.9274
1.78                   0.9617351       -44.14068
1.784                  0.9611431       -44.35543
1.788                  0.9605461       -44.57168
1.792                  0.9599443       -44.78943
1.796                  0.9593373       -45.00873
1.8                    0.9587251        -45.2296
1.804                  0.9581075       -45.45209
1.808                  0.9574844       -45.67621
1.812                  0.9568555       -45.90202
1.816                  0.9562209       -46.12952
1.82                   0.9555805       -46.35874
1.824                  0.9549336       -46.58975
1.828                  0.9542804       -46.82256
1.832                  0.9536205       -47.05721
1.836                  0.9529538       -47.29374
1.84                     0.95228       -47.53216
1.844                  0.9515988       -47.77252
1.848                    0.95091       -48.01487
1.852                  0.9502132       -48.25923
1.856                  0.9495082       -48.50563
1.86                   0.9487947       -48.75411
1.864                  0.9480722       -49.00473
1.868                  0.9473406       -49.25749
1.872                  0.9465992       -49.51245
1.876                   0.945848       -49.76964
1.88                   0.9450864       -50.02909
1.884                  0.9443139       -50.29085
1.888                  0.9435303       -50.55496
1.892                  0.9427351       -50.82144
1.896                  0.9419279       -51.09033
1.9                    0.9411079       -51.36167
1.904                   0.940275       -51.63551
1.908                  0.9394286       -51.91188
1.912                  0.9385682        -52.1908
1.916                  0.9376932       -52.47232
1.92                   0.9368032       -52.75648
1.924                  0.9358976       -53.04331
1.928                  0.9349757       -53.33286
1.932                  0.9340372       -53.62515
1.936                  0.9330813       -53.92022
1.94                   0.9321074       -54.21812
1.944                  0.9311152       -54.51886
1.948                  0.9301037       -54.82249
1.952                  0.9290724       -55.12906
1.956                   0.928021       -55.43858
1.96                   0.9269482        -55.7511
1.964                  0.9258538       -56.06665
1.968                  0.9247372       -56.38527
1.972                  0.9235974       -56.70697
1.976                   0.922434       -57.03181
1.98                   0.9212461       -57.35983
1.984                  0.9200332       -57.69104
1.988                  0.9187944       -58.02547
1.992                  0.9175291       -58.36318
1.996                  0.9162367       -58.70419
2                      0.9149163       -59.04852
2.004                  0.9135672        -59.3962
2.008                  0.9121888       -59.74728
2.012                  0.9107802       -60.10179
2.016                  0.9093408       -60.45975
2.02                   0.9078698       -60.82119
2.024                  0.9063665       -61.18614
2.028                  0.9048302       -61.55463
2.032                  0.9032599       -61.92671
2.036                  0.9016553       -62.30237
2.04                   0.9000154       -62.68168
2.044                  0.8983395       -63.06463
2.048                  0.8966269       -63.45128
2.052                  0.8948768       -63.84165
2.056                  0.8930885       -64.23575
2.06                   0.8912614       -64.63362
2.064                  0.8893947       -65.03529
2.068                  0.8874877       -65.44079
2.072                  0.8855396       -65.85013
2.076                  0.8835498       -66.26336
2.08                   0.8815178       -66.68049
2.084                  0.8794426       -67.10155
2.088                  0.8773238       -67.52657
2.092                  0.8751604       -67.95558
2.096                   0.872952       -68.38859
2.1                    0.8706979       -68.82565
2.104                  0.8683974       -69.26679
2.108                  0.8660502       -69.71199
2.112                  0.8636553       -70.16132
2.116                  0.8612124       -70.61479
2.12                   0.8587207       -71.07245
2.124                  0.8561797        -71.5343
2.128                  0.8535889       -72.00036
2.132                  0.8509479       -72.47069
2.136                  0.8482559       -72.94531
2.14                   0.8455126       -73.42423
2.144                  0.8427175       -73.90749
2.148                  0.8398701       -74.39511
2.152                    0.83697       -74.88713
2.156                  0.8340168       -75.38358
2.16                     0.83101        -75.8845
2.164                  0.8279492       -76.38991
2.168                  0.8248342       -76.89982
2.172                  0.8216647        -77.4143
2.176                  0.8184401       -77.93337
2.18                   0.8151603       -78.45705
2.184                  0.8118251       -78.98538
2.188                   0.808434       -79.51844
2.192                  0.8049871       -80.05619
2.196                   0.801484       -80.59874
2.2                    0.7979245        -81.1461
2.204                  0.7943086       -81.69829
2.208                  0.7906361       -82.25538
2.212                   0.786907       -82.81739
2.216                   0.783121       -83.38441
2.22                   0.7792784       -83.95644
2.224                  0.7753789       -84.53355
2.228                  0.7714227       -85.11578
2.232                  0.7674098       -85.70317
2.236                  0.7633403       -86.29582
2.24                   0.7592143       -86.89373
2.244                  0.7550319       -87.49699
2.248                  0.7507933       -88.10565
2.252                  0.7464988       -88.71977
2.256                  0.7421485       -89.33943
2.26                   0.7377429       -89.96468
2.264                  0.7332819       -90.59558
2.268                  0.7287662       -91.23224
2.272                   0.724196       -91.87469
2.276                  0.7195718       -92.52304
2.28                   0.7148939       -93.17734
2.284                   0.710163       -93.83771
2.288                  0.7053795       -94.50423
2.292                  0.7005439       -95.17697
2.296                  0.6956569       -95.85606
2.3                     0.690719       -96.54156
2.304                  0.6857309        -97.2336
2.308                  0.6806935       -97.93227
2.312                  0.6756072       -98.63772
2.316                   0.670473          -99.35
2.32                   0.6652916       -100.0693
2.324                  0.6600641       -100.7957
2.328                  0.6547912       -101.5294
2.332                  0.6494739       -102.2704
2.336                  0.6441133        -103.019
2.34                   0.6387101       -103.7752
2.344                  0.6332657       -104.5393
2.348                  0.6277812       -105.3114
2.352                  0.6222577       -106.0917