! TOUCHSTONE file generated by CST MICROWAVE STUDIO
! Date and time: Sat May 14 11:42:16 2022
! Project name: AppElm_antenne_dipole_Alumina.cst
! Parameters = {L=34.65; e=0.035; f=2.45e+09; h=1.6; i=0.8; l1=2; lambda=122.449; ls=30; wl=1.7; ws=80}
! Header version: 2018
! Port assignment regex: !\s*Touchstone port\s*([0-9]+)\s*=\s*(CST MWS port|CST DS port)\s*([0-9]+|Zmin|Zmax)\s*\(\"(.*)\"\)(\s*mode\s*([0-9]+))?.*
! Touchstone port assignment:
! Touchstone port 1 = CST MWS port 1 ("")
# GHz S MA R 50
0                              1              -0
0.004                  0.9999983     -0.07177116
0.008                   0.999993      -0.1435326
0.012                  0.9999843      -0.2152747
0.016                  0.9999723      -0.2869878
0.02                   0.9999566      -0.3586625
0.024                  0.9999377      -0.4302892
0.028                  0.9999155      -0.5018588
0.032                    0.99989       -0.573362
0.036                  0.9998614        -0.64479
0.04                   0.9998295      -0.7161344
0.044                  0.9997948      -0.7873862
0.048                  0.9997571      -0.8585377
0.052                  0.9997166      -0.9295809
0.056                  0.9996734       -1.000508
0.06                   0.9996276       -1.071312
0.064                  0.9995793       -1.141987
0.068                  0.9995288       -1.212525
0.072                  0.9994759       -1.282921
0.076                  0.9994212       -1.353168
0.08                   0.9993645       -1.423263
0.084                   0.999306         -1.4932
0.088                  0.9992463       -1.562975
0.092                  0.9991848       -1.632584
0.096                  0.9991222       -1.702025
0.1                    0.9990585       -1.771294
0.104                  0.9989941       -1.840389
0.108                  0.9989288       -1.909309
0.112                  0.9988629       -1.978052
0.116                  0.9987969       -2.046618
0.12                   0.9987307       -2.115008
0.124                  0.9986646       -2.183221
0.128                  0.9985986       -2.251259
0.132                   0.998533       -2.319124
0.136                  0.9984681       -2.386817
0.14                    0.998404       -2.454341
0.144                  0.9983406       -2.521701
0.148                  0.9982785         -2.5889
0.152                  0.9982177       -2.655942
0.156                  0.9981584       -2.722832
0.16                   0.9981006       -2.789576
0.164                  0.9980448        -2.85618
0.168                  0.9979908        -2.92265
0.172                   0.997939       -2.988994
0.176                  0.9978895       -3.055218
0.18                   0.9978422        -3.12133
0.184                  0.9977976        -3.18734
0.188                  0.9977556       -3.253255
0.192                  0.9977164       -3.319085
0.196                  0.9976801       -3.384839
0.2                    0.9976468       -3.450527
0.204                  0.9976165       -3.516158
0.208                  0.9975895       -3.581744
0.212                  0.9975656       -3.647296
0.216                   0.997545       -3.712823
0.22                    0.997528       -3.778337
0.224                  0.9975143       -3.843849
0.228                  0.9975039       -3.909371
0.232                  0.9974974       -3.974913
0.236                  0.9974941       -4.040489
0.24                   0.9974944       -4.106109
0.244                  0.9974984       -4.171785
0.248                  0.9975056       -4.237529
0.252                  0.9975166       -4.303352
0.256                   0.997531       -4.369267
0.26                   0.9975489       -4.435284
0.264                  0.9975701       -4.501416
0.268                  0.9975947       -4.567673
0.272                  0.9976225       -4.634065
0.276                  0.9976534       -4.700606
0.28                   0.9976877       -4.767304
0.284                  0.9977247        -4.83417
0.288                  0.9977648       -4.901215
0.292                  0.9978076       -4.968448
0.296                  0.9978532       -5.035878
0.3                    0.9979013       -5.103515
0.304                  0.9979517       -5.171368
0.308                  0.9980046       -5.239444
0.312                  0.9980596       -5.307751
0.316                  0.9981163       -5.376298
0.32                    0.998175       -5.445089
0.324                  0.9982355       -5.514133
0.328                  0.9982973       -5.583436
0.332                  0.9983605       -5.653001
0.336                  0.9984247       -5.722835
0.34                   0.9984899       -5.792943
0.344                  0.9985559       -5.863326
0.348                  0.9986225       -5.933989
0.352                  0.9986894       -6.004934
0.356                  0.9987565       -6.076165
0.36                   0.9988236       -6.147682
0.364                  0.9988906       -6.219485
0.368                  0.9989571       -6.291577
0.372                  0.9990229       -6.363956
0.376                  0.9990882       -6.436622
0.38                   0.9991523       -6.509573
0.384                  0.9992154       -6.582807
0.388                  0.9992772       -6.656323
0.392                  0.9993374       -6.730117
0.396                  0.9993958       -6.804186
0.4                    0.9994526       -6.878525
0.404                  0.9995072        -6.95313
0.408                  0.9995597       -7.027996
0.412                  0.9996098       -7.103119
0.416                  0.9996573       -7.178491
0.42                   0.9997022       -7.254107
0.424                  0.9997443       -7.329957
0.428                  0.9997835       -7.406039
0.432                  0.9998198       -7.482341
0.436                  0.9998528       -7.558857
0.44                   0.9998825       -7.635579
0.444                   0.999909       -7.712497
0.448                  0.9999318       -7.789603
0.452                  0.9999513        -7.86689
0.456                  0.9999671       -7.944344
0.46                   0.9999792       -8.021959
0.464                  0.9999877       -8.099723
0.468                  0.9999923       -8.177629
0.472                  0.9999931       -8.255665
0.476                  0.9999903       -8.333821
0.48                   0.9999835       -8.412087
0.484                   0.999973       -8.490453
0.488                  0.9999586       -8.568909
0.492                  0.9999403       -8.647445
0.496                  0.9999184       -8.726052
0.5                    0.9998927       -8.804717
0.504                  0.9998633       -8.883434
0.508                  0.9998304        -8.96219
0.512                  0.9997939       -9.040978
0.516                  0.9997538       -9.119789
0.52                   0.9997105       -9.198613
0.524                   0.999664       -9.277439
0.528                  0.9996142       -9.356264
0.532                  0.9995614       -9.435076
0.536                  0.9995056       -9.513868
0.54                   0.9994472       -9.592635
0.544                   0.999386       -9.671367
0.548                  0.9993222       -9.750059
0.552                  0.9992563       -9.828705
0.556                  0.9991881       -9.907299
0.56                   0.9991179       -9.985838
0.564                   0.999046       -10.06431
0.568                  0.9989721       -10.14273
0.572                  0.9988971       -10.22107
0.576                  0.9988207       -10.29934
0.58                   0.9987431       -10.37755
0.584                  0.9986647       -10.45567
0.588                  0.9985857       -10.53372
0.592                  0.9985061        -10.6117
0.596                  0.9984261       -10.68959
0.6                    0.9983462       -10.76742
0.604                  0.9982663       -10.84517
0.608                  0.9981867       -10.92285
0.612                  0.9981078       -11.00045
0.616                  0.9980295         -11.078
0.62                   0.9979522       -11.15548
0.624                   0.997876       -11.23291
0.628                  0.9978009       -11.31029
0.632                  0.9977277       -11.38762
0.636                   0.997656       -11.46491
0.64                   0.9975863       -11.54217
0.644                  0.9975185       -11.61941
0.648                   0.997453       -11.69663
0.652                    0.99739       -11.77384
0.656                  0.9973295       -11.85106
0.66                   0.9972716       -11.92828
0.664                  0.9972166       -12.00554
0.668                  0.9971648       -12.08282
0.672                   0.997116       -12.16015
0.676                  0.9970704       -12.23753
0.68                   0.9970281       -12.31499
0.684                  0.9969894       -12.39252
0.688                  0.9969542       -12.47015
0.692                  0.9969226       -12.54788
0.696                  0.9968948       -12.62574
0.7                    0.9968708       -12.70373
0.704                  0.9968503       -12.78187
0.708                  0.9968339       -12.86016
0.712                  0.9968215       -12.93863
0.716                  0.9968128        -13.0173
0.72                    0.996808       -13.09617
0.724                   0.996807       -13.17525
0.728                    0.99681       -13.25457
0.732                  0.9968169       -13.33414
0.736                  0.9968274       -13.41397
0.74                   0.9968418       -13.49407
0.744                  0.9968598       -13.57446
0.748                  0.9968814       -13.65516
0.752                  0.9969064       -13.73618
0.756                  0.9969351       -13.81752
0.76                   0.9969669       -13.89922
0.764                  0.9970019       -13.98127
0.768                    0.99704       -14.06368
0.772                   0.997081       -14.14649
0.776                  0.9971247       -14.22968
0.78                    0.997171       -14.31328
0.784                  0.9972198        -14.3973
0.788                  0.9972708       -14.48175
0.792                   0.997324       -14.56663
0.796                   0.997379       -14.65195
0.8                    0.9974356       -14.73774
0.804                  0.9974938       -14.82399
0.808                  0.9975532       -14.91071
0.812                  0.9976137       -14.99791
0.816                   0.997675       -15.08559
0.82                    0.997737       -15.17377
0.824                  0.9977992       -15.26244
0.828                  0.9978616       -15.35162
0.832                   0.997924        -15.4413
0.836                   0.997986       -15.53149
0.84                   0.9980475        -15.6222
0.844                  0.9981081       -15.71341
0.848                  0.9981678       -15.80515
0.852                  0.9982261        -15.8974
0.856                  0.9982828       -15.99016
0.86                   0.9983379       -16.08344
0.864                   0.998391       -16.17724
0.868                  0.9984418       -16.27154
0.872                  0.9984902       -16.36636
0.876                  0.9985359       -16.46168
0.88                   0.9985788        -16.5575
0.884                  0.9986185       -16.65382
0.888                   0.998655       -16.75064
0.892                   0.998688       -16.84794
0.896                  0.9987173       -16.94572
0.9                    0.9987428       -17.04398
0.904                  0.9987641        -17.1427
0.908                  0.9987814       -17.24188
0.912                  0.9987942       -17.34151
0.916                  0.9988026       -17.44159
0.92                   0.9988063        -17.5421
0.924                  0.9988051       -17.64303
0.928                  0.9987991       -17.74438
0.932                  0.9987882       -17.84613
0.936                  0.9987721       -17.94828
0.94                   0.9987509       -18.05081
0.944                  0.9987244       -18.15371
0.948                  0.9986928       -18.25697
0.952                  0.9986556       -18.36059
0.956                  0.9986133       -18.46454
0.96                   0.9985654       -18.56883
0.964                  0.9985122       -18.67344
0.968                  0.9984536       -18.77835
0.972                  0.9983896       -18.88355
0.976                  0.9983204       -18.98904
0.98                   0.9982458       -19.09481
0.984                  0.9981661       -19.20084
0.988                  0.9980811       -19.30712
0.992                   0.997991       -19.41364
0.996                  0.9978961        -19.5204
1                      0.9977963       -19.62738
1.004                  0.9976918       -19.73459
1.008                  0.9975825       -19.84199
1.012                  0.9974688       -19.94958
1.016                  0.9973509       -20.05739
1.02                   0.9972287       -20.16536
1.024                  0.9971026       -20.27347
1.028                  0.9969726       -20.38182
1.032                  0.9968391       -20.49026
1.036                  0.9967021       -20.59891
1.04                    0.996562        -20.7077
1.044                  0.9964189       -20.81666
1.048                   0.996273       -20.92575
1.052                  0.9961245       -21.03501
1.056                  0.9959738       -21.14437
1.06                    0.995821        -21.2539
1.064                  0.9956664       -21.36359
1.068                  0.9955103        -21.4734
1.072                  0.9953529       -21.58339
1.076                  0.9951943       -21.69349
1.08                   0.9950349       -21.80378
1.084                  0.9948752       -21.91419
1.088                   0.994715       -22.02478
1.092                  0.9945547       -22.13557
1.096                  0.9943948       -22.24652
1.1                    0.9942352       -22.35763
1.104                  0.9940763       -22.46896
1.108                  0.9939185       -22.58051
1.112                  0.9937619       -22.69223
1.116                  0.9936065       -22.80419
1.12                   0.9934529       -22.91642
1.124                  0.9933012       -23.02887
1.128                  0.9931513       -23.14161
1.132                  0.9930041       -23.25462
1.136                  0.9928592       -23.36793
1.14                    0.992717       -23.48155
1.144                  0.9925777        -23.5955
1.148                  0.9924414       -23.70979
1.152                  0.9923081       -23.82446
1.156                  0.9921782        -23.9395
1.16                   0.9920519       -24.05495
1.164                   0.991929       -24.17083
1.168                  0.9918098       -24.28716
1.172                  0.9916944       -24.40395
1.176                  0.9915827       -24.52123
1.18                    0.991475       -24.63902
1.184                  0.9913711       -24.75734
1.188                  0.9912712       -24.87622
1.192                  0.9911753       -24.99568
1.196                  0.9910833       -25.11575
1.2                    0.9909953       -25.23644
1.204                  0.9909112       -25.35778
1.208                  0.9908309        -25.4798
1.212                  0.9907545       -25.60251
1.216                  0.9906817       -25.72595
1.22                   0.9906125       -25.85013
1.224                  0.9905468       -25.97508
1.228                  0.9904843       -26.10083
1.232                   0.990425        -26.2274
1.236                  0.9903689        -26.3548
1.24                   0.9903156       -26.48307
1.244                  0.9902649       -26.61223
1.248                  0.9902165        -26.7423
1.252                  0.9901704       -26.87329
1.256                  0.9901262       -27.00524
1.26                   0.9900837       -27.13816
1.264                  0.9900426       -27.27208
1.268                  0.9900026       -27.40701
1.272                  0.9899635       -27.54297
1.276                   0.989925       -27.67999
1.28                   0.9898867       -27.81807
1.284                   0.989848       -27.95725
1.288                   0.989809       -28.09753
1.292                  0.9897692       -28.23892
1.296                  0.9897283       -28.38146
1.3                    0.9896857       -28.52514
1.304                  0.9896412       -28.66998
1.308                  0.9895944         -28.816
1.312                  0.9895451       -28.96321
1.316                  0.9894925       -29.11161
1.32                   0.9894367       -29.26122
1.324                  0.9893767       -29.41205
1.328                  0.9893126       -29.56411
1.332                   0.989244        -29.7174
1.336                  0.9891701       -29.87193
1.34                   0.9890908        -30.0277
1.344                  0.9890059       -30.18472
1.348                  0.9889145         -30.343
1.352                  0.9888166       -30.50253
1.356                  0.9887116       -30.66333
1.36                   0.9885993       -30.82537
1.364                  0.9884792       -30.98869
1.368                  0.9883509       -31.15326
1.372                  0.9882143       -31.31909
1.376                  0.9880687       -31.48618
1.38                   0.9879139       -31.65453
1.384                  0.9877497       -31.82413
1.388                  0.9875756       -31.99498
1.392                  0.9873915       -32.16706
1.396                  0.9871968       -32.34039
1.4                    0.9869913       -32.51496
1.404                  0.9867751       -32.69075
1.408                  0.9865474       -32.86776
1.412                  0.9863081       -33.04599
1.416                  0.9860574       -33.22542
1.42                   0.9857947       -33.40606
1.424                  0.9855197       -33.58788
1.428                  0.9852326       -33.77089
1.432                  0.9849328       -33.95508
1.436                  0.9846206       -34.14044
1.44                   0.9842956       -34.32695
1.444                  0.9839577       -34.51462
1.448                  0.9836069       -34.70344
1.452                   0.983243       -34.89339
1.456                  0.9828661       -35.08446
1.46                    0.982476       -35.27666
1.464                  0.9820728       -35.46998
1.468                  0.9816563       -35.66441
1.472                   0.981227       -35.85993
1.476                  0.9807842       -36.05655
1.48                   0.9803286       -36.25426
1.484                  0.9798599       -36.45306
1.488                  0.9793782       -36.65295
1.492                  0.9788837       -36.85391
1.496                  0.9783766       -37.05594
1.5                    0.9778567       -37.25905
1.504                  0.9773244       -37.46325
1.508                  0.9767798       -37.66852
1.512                  0.9762229       -37.87487
1.516                  0.9756541       -38.08229
1.52                   0.9750735        -38.2908
1.524                  0.9744813        -38.5004
1.528                  0.9738777        -38.7111
1.532                  0.9732627       -38.92291
1.536                   0.972637       -39.13582
1.54                   0.9720004       -39.34986
1.544                  0.9713533       -39.56504
1.548                  0.9706958       -39.78137
1.552                  0.9700284       -39.99886
1.556                  0.9693512       -40.21753
1.56                   0.9686642       -40.43741
1.564                  0.9679681       -40.65849
1.568                  0.9672628       -40.88082
1.572                  0.9665487       -41.10442
1.576                  0.9658258        -41.3293
1.58                   0.9650946       -41.55549
1.584                  0.9643552       -41.78304
1.588                  0.9636078       -42.01195
1.592                  0.9628527       -42.24226
1.596                  0.9620901       -42.47402
1.6                    0.9613199       -42.70724
1.604                  0.9605425       -42.94198
1.608                  0.9597581       -43.17827
1.612                  0.9589665       -43.41614
1.616                  0.9581682       -43.65565
1.62                   0.9573632       -43.89683
1.624                  0.9565514       -44.13973
1.628                   0.955733        -44.3844
1.632                  0.9549081       -44.63088
1.636                  0.9540765       -44.87924
1.64                   0.9532383        -45.1295
1.644                  0.9523935       -45.38174
1.648                   0.951542         -45.636
1.652                  0.9506836       -45.89235
1.656                  0.9498183       -46.15083
1.66                   0.9489458       -46.41152
1.664                  0.9480662       -46.67446
1.668                  0.9471788       -46.93973
1.672                  0.9462838       -47.20738
1.676                  0.9453807       -47.47746
1.68                   0.9444693       -47.75005
1.684                  0.9435491       -48.02523
1.688                  0.9426199       -48.30304
1.692                  0.9416811       -48.58356
1.696                  0.9407321       -48.86685
1.7                    0.9397727         -49.153
1.704                  0.9388023       -49.44204
1.708                  0.9378203       -49.73408
1.712                  0.9368261       -50.02916
1.716                  0.9358192       -50.32736
1.72                   0.9347985       -50.62876
1.724                  0.9337636       -50.93341
1.728                  0.9327137        -51.2414
1.732                  0.9316479        -51.5528
1.736                  0.9305656       -51.86767
1.74                   0.9294658       -52.18608
1.744                  0.9283477        -52.5081
1.748                    0.92721       -52.83381
1.752                  0.9260524       -53.16327
1.756                  0.9248734       -53.49656
1.76                   0.9236722       -53.83374
1.764                  0.9224477       -54.17487
1.768                  0.9211987       -54.52004
1.772                  0.9199244        -54.8693
1.776                  0.9186234       -55.22272
1.78                   0.9172944       -55.58037
1.784                  0.9159364       -55.94232
1.788                  0.9145484       -56.30861
1.792                  0.9131287       -56.67934
1.796                  0.9116765       -57.05453
1.8                    0.9101903       -57.43428
1.804                  0.9086688       -57.81863
1.808                  0.9071107       -58.20764
1.812                  0.9055148       -58.60138
1.816                  0.9038796       -58.99989
1.82                   0.9022039       -59.40326
1.824                  0.9004862       -59.81151
1.828                  0.8987252       -60.22471
1.832                  0.8969197       -60.64291
1.836                   0.895068       -61.06616
1.84                   0.8931689       -61.49452
1.844                  0.8912212       -61.92804
1.848                  0.8892231       -62.36677
1.852                  0.8871736       -62.81075
1.856                  0.8850711       -63.26004
1.86                   0.8829145       -63.71469
1.864                  0.8807022       -64.17472
1.868                  0.8784329       -64.64021
1.872                  0.8761053       -65.11119
1.876                  0.8737182       -65.58769
1.88                   0.8712702       -66.06978
1.884                  0.8687599        -66.5575
1.888                  0.8661862       -67.05087
1.892                  0.8635478       -67.54995
1.896                  0.8608434       -68.05478
1.9                     0.858072       -68.56541
1.904                  0.8552322       -69.08187
1.908                  0.8523231       -69.60419
1.912                  0.8493434       -70.13243
1.916                  0.8462922       -70.66663
1.92                   0.8431683       -71.20683
1.924                  0.8399708       -71.75309
1.928                  0.8366986       -72.30541
1.932                  0.8333508       -72.86387
1.936                  0.8299267       -73.42848
1.94                   0.8264251       -73.99932
1.944                  0.8228455       -74.57641
1.948                   0.819187       -75.15982
1.952                  0.8154488       -75.74957
1.956                  0.8116304       -76.34572
1.96                   0.8077311       -76.94832
1.964                  0.8037503       -77.55744
1.968                  0.7996875       -78.17309
1.972                  0.7955422       -78.79537
1.976                  0.7913141       -79.42432
1.98                   0.7870026       -80.05998
1.984                  0.7826077       -80.70244
1.988                  0.7781289       -81.35174
1.992                  0.7735662       -82.00796
1.996                  0.7689193       -82.67118
2                      0.7641883       -83.34146
2.004                  0.7593729       -84.01888
2.008                  0.7544736       -84.70351
2.012                  0.7494901       -85.39546
2.016                  0.7444227       -86.09479
2.02                   0.7392718        -86.8016
2.024                  0.7340376         -87.516
2.028                  0.7287205       -88.23808
2.032                  0.7233211       -88.96796
2.036                  0.7178395       -89.70575
2.04                   0.7122766       -90.45155
2.044                  0.7066333       -91.20552
2.048                  0.7009099       -91.96777
2.052                  0.6951074       -92.73843
2.056                  0.6892268       -93.51768
2.06                   0.6832689       -94.30563
2.064                  0.6772347       -95.10251
2.068                  0.6711255       -95.90843
2.072                  0.6649424        -96.7236
2.076                  0.6586867       -97.54821
2.08                   0.6523598       -98.38246
2.084                  0.6459629       -99.22657
2.088                  0.6394979       -100.0807
2.092                  0.6329662       -100.9452
2.096                  0.6263695       -101.8203
2.1                    0.6197097       -102.7062
2.104                  0.6129887       -103.6032
2.108                  0.6062083       -104.5116
2.112                  0.5993708       -105.4318
2.116                  0.5924782        -106.364
2.12                   0.5855327       -107.3086
2.124                  0.5785369       -108.2659
2.128                  0.5714932       -109.2364
2.132                  0.5644041       -110.2204
2.136                  0.5572722       -111.2184
2.14                   0.5501006       -112.2309
2.144                   0.542892       -113.2582
2.148                  0.5356496        -114.301
2.152                  0.5283765       -115.3597
2.156                   0.521076       -116.4349
2.16                   0.5137514       -117.5272
2.164                  0.5064066       -118.6372
2.168                  0.4990448       -119.7655
2.172                  0.4916705       -120.9129
2.176                  0.4842873       -122.0801
2.18                   0.4768995       -123.2678
2.184                  0.4695115       -124.4768
2.188                  0.4621279        -125.708
2.192                  0.4547533       -126.9622
2.196                  0.4473926       -128.2404
2.2                    0.4400511       -129.5435
2.204                  0.4327339       -130.8725
2.208                  0.4254469       -132.2285
2.212                  0.4181955       -133.6125
2.216                   0.410986       -135.0257
2.22                   0.4038248       -136.4693
2.224                  0.3967183       -137.9445
2.228                  0.3896733       -139.4524
2.232                  0.3826969       -140.9945
2.236                  0.3757967       -142.5719
2.24                   0.3689804        -144.186
2.244                  0.3622558       -145.8382
2.248                  0.3556316       -147.5298
2.252                  0.3491163       -149.2622
2.256                  0.3427188       -151.0365
2.26                   0.3364486       -152.8542
2.264                  0.3303153       -154.7163
2.268                  0.3243288       -156.6241
2.272                  0.3184993       -158.5786
2.276                  0.3128374       -160.5807
2.28                   0.3073538        -162.631
2.284                  0.3020592       -164.7302
2.288                   0.296965       -166.8785
2.292                   0.292082       -169.0759
2.296                  0.2874216       -171.3223
2.3                    0.2829948        -173.617
2.304                  0.2788124       -175.9591
2.308                  0.2748851        -178.347
2.312                  0.2712231        179.2209
2.316                  0.2678361        176.7471
2.32                   0.2647331        174.2342
2.324                  0.2619224        171.6856
2.328                  0.2594115        169.1049
2.332                  0.2572065        166.4962
2.336                  0.2553127        163.8642
2.34                   0.2537337        161.2138
2.344                  0.2524723        158.5502
2.348                  0.2515294        155.8787
2.352                  0.2509047        153.2051