! TOUCHSTONE file generated by CST MICROWAVE STUDIO
! Date and time: Sat May 14 11:42:12 2022
! Project name: AppElm_antenne_dipole_Alumina.cst
! Parameters = {L=28.05; e=0.035; f=2.45e+09; h=1.6; i=0.8; l1=2; lambda=122.449; ls=30; wl=1.7; ws=80}
! Header version: 2018
! Port assignment regex: !\s*Touchstone port\s*([0-9]+)\s*=\s*(CST MWS port|CST DS port)\s*([0-9]+|Zmin|Zmax)\s*\(\"(.*)\"\)(\s*mode\s*([0-9]+))?.*
! Touchstone port assignment:
! Touchstone port 1 = CST MWS port 1 ("")
# GHz S MA R 50
0                      0.9976096              -0
0.004                  0.9976106      -0.0592715
0.008                  0.9976135      -0.1185482
0.012                  0.9976185      -0.1778354
0.016                  0.9976254      -0.2371382
0.02                   0.9976344      -0.2964617
0.024                  0.9976452      -0.3558112
0.028                   0.997658      -0.4151918
0.032                  0.9976727      -0.4746084
0.036                  0.9976892      -0.5340662
0.04                   0.9977077        -0.59357
0.044                   0.997728      -0.6531248
0.048                    0.99775      -0.7127354
0.052                  0.9977738      -0.7724063
0.056                  0.9977993      -0.8321423
0.06                   0.9978265      -0.8919481
0.064                  0.9978554      -0.9518278
0.068                  0.9978858       -1.011786
0.072                  0.9979177       -1.071827
0.076                  0.9979512       -1.131954
0.08                   0.9979859       -1.192173
0.084                  0.9980223       -1.252485
0.088                  0.9980598       -1.312896
0.092                  0.9980985       -1.373409
0.096                  0.9981385       -1.434027
0.1                    0.9981796       -1.494754
0.104                  0.9982218       -1.555592
0.108                  0.9982649       -1.616545
0.112                  0.9983088       -1.677615
0.116                  0.9983536       -1.738805
0.12                   0.9983992       -1.800117
0.124                  0.9984455       -1.861555
0.128                  0.9984924       -1.923118
0.132                  0.9985398       -1.984811
0.136                  0.9985876       -2.046635
0.14                   0.9986358        -2.10859
0.144                  0.9986844       -2.170678
0.148                   0.998733       -2.232902
0.152                  0.9987819       -2.295261
0.156                  0.9988308       -2.357756
0.16                   0.9988798       -2.420388
0.164                  0.9989285       -2.483158
0.168                  0.9989771       -2.546066
0.172                  0.9990254       -2.609111
0.176                  0.9990733       -2.672294
0.18                   0.9991207       -2.735615
0.184                  0.9991677       -2.799072
0.188                   0.999214       -2.862666
0.192                  0.9992597       -2.926395
0.196                  0.9993046       -2.990259
0.2                    0.9993487       -3.054256
0.204                  0.9993918       -3.118384
0.208                  0.9994342       -3.182643
0.212                  0.9994752       -3.247031
0.216                  0.9995154       -3.311545
0.22                   0.9995542       -3.376184
0.224                  0.9995918       -3.440945
0.228                  0.9996281       -3.505827
0.232                   0.999663       -3.570826
0.236                  0.9996964       -3.635941
0.24                   0.9997285       -3.701167
0.244                  0.9997589       -3.766503
0.248                  0.9997878       -3.831946
0.252                  0.9998149       -3.897492
0.256                  0.9998404       -3.963138
0.26                   0.9998642       -4.028881
0.264                   0.999886       -4.094718
0.268                  0.9999061       -4.160643
0.272                  0.9999243       -4.226656
0.276                  0.9999406       -4.292751
0.28                   0.9999551       -4.358924
0.284                  0.9999676       -4.425172
0.288                  0.9999779       -4.491492
0.292                  0.9999864       -4.557879
0.296                  0.9999928       -4.624328
0.3                    0.9999972       -4.690837
0.304                  0.9999996         -4.7574
0.308                          1       -4.824015
0.312                  0.9999982       -4.890676
0.316                  0.9999943        -4.95738
0.32                   0.9999884       -5.024122
0.324                  0.9999805       -5.090899
0.328                  0.9999705       -5.157707
0.332                  0.9999585        -5.22454
0.336                  0.9999445       -5.291396
0.34                   0.9999283       -5.358271
0.344                  0.9999104       -5.425158
0.348                  0.9998904       -5.492058
0.352                  0.9998685       -5.558963
0.356                  0.9998448       -5.625871
0.36                   0.9998192       -5.692778
0.364                  0.9997918        -5.75968
0.368                  0.9997625       -5.826576
0.372                  0.9997314       -5.893459
0.376                  0.9996987       -5.960329
0.38                   0.9996644       -6.027179
0.384                  0.9996284       -6.094009
0.388                   0.999591       -6.160814
0.392                   0.999552       -6.227593
0.396                  0.9995117       -6.294343
0.4                    0.9994701       -6.361058
0.404                   0.999427       -6.427742
0.408                  0.9993827       -6.494386
0.412                  0.9993374       -6.560993
0.416                  0.9992909       -6.627558
0.42                   0.9992434        -6.69408
0.424                   0.999195       -6.760559
0.428                  0.9991455       -6.826991
0.432                  0.9990955       -6.893376
0.436                  0.9990447       -6.959713
0.44                   0.9989932       -7.026001
0.444                  0.9989412       -7.092239
0.448                  0.9988887       -7.158425
0.452                  0.9988358       -7.224562
0.456                  0.9987826       -7.290648
0.46                   0.9987293       -7.356682
0.464                  0.9986758       -7.422667
0.468                  0.9986222         -7.4886
0.472                  0.9985687       -7.554486
0.476                  0.9985153       -7.620321
0.48                   0.9984621       -7.686109
0.484                  0.9984092       -7.751851
0.488                  0.9983567       -7.817549
0.492                  0.9983046       -7.883202
0.496                  0.9982531       -7.948814
0.5                    0.9982022       -8.014388
0.504                   0.998152       -8.079925
0.508                  0.9981025       -8.145429
0.512                  0.9980541       -8.210898
0.516                  0.9980064        -8.27634
0.52                   0.9979599       -8.341755
0.524                  0.9979144       -8.407148
0.528                  0.9978701       -8.472522
0.532                  0.9978271        -8.53788
0.536                  0.9977854       -8.603225
0.54                   0.9977449       -8.668562
0.544                  0.9977061       -8.733896
0.548                  0.9976686       -8.799232
0.552                  0.9976329        -8.86457
0.556                  0.9975987       -8.929918
0.56                   0.9975662       -8.995282
0.564                  0.9975354       -9.060661
0.568                  0.9975065       -9.126065
0.572                  0.9974794       -9.191501
0.576                  0.9974541       -9.256968
0.58                   0.9974307       -9.322477
0.584                  0.9974094       -9.388029
0.588                    0.99739       -9.453633
0.592                  0.9973726       -9.519292
0.596                  0.9973573       -9.585014
0.6                     0.997344       -9.650803
0.604                  0.9973329       -9.716666
0.608                  0.9973239       -9.782608
0.612                  0.9973169       -9.848636
0.616                  0.9973122       -9.914754
0.62                   0.9973096        -9.98097
0.624                  0.9973091       -10.04729
0.628                  0.9973108       -10.11372
0.632                  0.9973146       -10.18026
0.636                  0.9973206       -10.24693
0.64                   0.9973287       -10.31373
0.644                  0.9973389       -10.38066
0.648                  0.9973512       -10.44773
0.652                  0.9973656       -10.51494
0.656                   0.997382       -10.58231
0.66                   0.9974004       -10.64983
0.664                  0.9974209       -10.71752
0.668                  0.9974431       -10.78538
0.672                  0.9974673       -10.85342
0.676                  0.9974934       -10.92163
0.68                   0.9975214       -10.99003
0.684                   0.997551       -11.05863
0.688                  0.9975824       -11.12742
0.692                  0.9976154       -11.19641
0.696                    0.99765       -11.26561
0.7                    0.9976861       -11.33503
0.704                  0.9977238       -11.40466
0.708                  0.9977627       -11.47451
0.712                  0.9978031        -11.5446
0.716                  0.9978445       -11.61491
0.72                   0.9978872       -11.68546
0.724                  0.9979311       -11.75625
0.728                  0.9979759       -11.82728
0.732                  0.9980216       -11.89856
0.736                  0.9980683       -11.97009
0.74                   0.9981156       -12.04188
0.744                  0.9981637       -12.11392
0.748                  0.9982121       -12.18622
0.752                  0.9982612       -12.25879
0.756                  0.9983107       -12.33162
0.76                   0.9983605       -12.40472
0.764                  0.9984105        -12.4781
0.768                  0.9984604       -12.55174
0.772                  0.9985105       -12.62566
0.776                  0.9985605       -12.69985
0.78                   0.9986103       -12.77433
0.784                  0.9986598       -12.84908
0.788                  0.9987091       -12.92411
0.792                  0.9987576       -12.99942
0.796                  0.9988056       -13.07501
0.8                     0.998853       -13.15088
0.804                  0.9988997       -13.22703
0.808                  0.9989454       -13.30346
0.812                  0.9989901       -13.38018
0.816                  0.9990338       -13.45717
0.82                   0.9990764       -13.53444
0.824                  0.9991177       -13.61199
0.828                  0.9991576       -13.68982
0.832                  0.9991961       -13.76793
0.836                  0.9992331        -13.8463
0.84                   0.9992685       -13.92495
0.844                  0.9993021       -14.00387
0.848                   0.999334       -14.08306
0.852                  0.9993641       -14.16251
0.856                  0.9993922       -14.24223
0.86                   0.9994185       -14.32221
0.864                  0.9994423       -14.40244
0.868                  0.9994643       -14.48293
0.872                   0.999484       -14.56368
0.876                  0.9995015       -14.64466
0.88                   0.9995164        -14.7259
0.884                   0.999529       -14.80738
0.888                  0.9995393        -14.8891
0.892                   0.999547       -14.97105
0.896                  0.9995522       -15.05323
0.9                    0.9995546       -15.13564
0.904                  0.9995547       -15.21827
0.908                  0.9995519       -15.30111
0.912                  0.9995465       -15.38418
0.916                  0.9995382       -15.46745
0.92                   0.9995272       -15.55093
0.924                  0.9995136       -15.63461
0.928                  0.9994971       -15.71848
0.932                  0.9994777       -15.80255
0.936                  0.9994555       -15.88681
0.94                   0.9994306       -15.97125
0.944                  0.9994028       -16.05587
0.948                  0.9993722       -16.14066
0.952                  0.9993386       -16.22563
0.956                  0.9993024       -16.31076
0.96                   0.9992635       -16.39605
0.964                  0.9992217        -16.4815
0.968                  0.9991771        -16.5671
0.972                  0.9991298       -16.65286
0.976                  0.9990798       -16.73875
0.98                   0.9990272       -16.82478
0.984                  0.9989721       -16.91096
0.988                  0.9989144       -16.99726
0.992                  0.9988539        -17.0837
0.996                  0.9987913       -17.17026
1                      0.9987261       -17.25694
1.004                  0.9986585       -17.34374
1.008                  0.9985888       -17.43066
1.012                  0.9985168       -17.51769
1.016                  0.9984426       -17.60483
1.02                   0.9983664       -17.69209
1.024                  0.9982881       -17.77941
1.028                  0.9982079       -17.86689
1.032                  0.9981259       -17.95443
1.036                   0.998042        -18.0421
1.04                   0.9979566       -18.12983
1.044                  0.9978695       -18.21769
1.048                  0.9977809       -18.30561
1.052                  0.9976909       -18.39366
1.056                  0.9975996       -18.48174
1.06                   0.9975072       -18.56999
1.064                  0.9974136       -18.65826
1.068                  0.9973189       -18.74667
1.072                  0.9972234       -18.83517
1.076                  0.9971271       -18.92374
1.08                   0.9970301       -19.01242
1.084                  0.9969325       -19.10116
1.088                  0.9968344       -19.19003
1.092                   0.996736       -19.27899
1.096                  0.9966372       -19.36806
1.1                    0.9965383        -19.4572
1.104                  0.9964394       -19.54649
1.108                  0.9963404       -19.63583
1.112                  0.9962417        -19.7253
1.116                  0.9961432       -19.81492
1.12                   0.9960451       -19.90461
1.124                  0.9959476       -19.99441
1.128                  0.9958505       -20.08437
1.132                  0.9957541       -20.17444
1.136                  0.9956586       -20.26465
1.14                   0.9955638         -20.355
1.144                  0.9954702       -20.44548
1.148                  0.9953776       -20.53612
1.152                  0.9952863        -20.6269
1.156                   0.995196       -20.71786
1.16                   0.9951073       -20.80897
1.164                  0.9950199       -20.90027
1.168                  0.9949341       -20.99174
1.172                  0.9948498        -21.0834
1.176                  0.9947673       -21.17524
1.18                   0.9946865        -21.2673
1.184                  0.9946075       -21.35956
1.188                  0.9945305       -21.45204
1.192                  0.9944553       -21.54476
1.196                  0.9943823       -21.63769
1.2                    0.9943112       -21.73088
1.204                  0.9942423       -21.82432
1.208                  0.9941755       -21.91801
1.212                   0.994111       -22.01198
1.216                  0.9940486       -22.10623
1.22                   0.9939886       -22.20076
1.224                  0.9939308        -22.2956
1.228                  0.9938754       -22.39074
1.232                  0.9938224        -22.4862
1.236                  0.9937716       -22.58198
1.24                   0.9937233       -22.67811
1.244                  0.9936771       -22.77458
1.248                  0.9936335       -22.87141
1.252                  0.9935923       -22.96861
1.256                  0.9935531       -23.06619
1.26                   0.9935166       -23.16416
1.264                  0.9934821       -23.26252
1.268                    0.99345        -23.3613
1.272                  0.9934201       -23.46049
1.276                  0.9933924       -23.56012
1.28                   0.9933667       -23.66019
1.284                  0.9933433       -23.76071
1.288                  0.9933218       -23.86169
1.292                  0.9933023       -23.96314
1.296                  0.9932846       -24.06508
1.3                    0.9932688       -24.16751
1.304                  0.9932548       -24.27044
1.308                  0.9932424       -24.37388
1.312                  0.9932316       -24.47784
1.316                  0.9932222       -24.58234
1.32                   0.9932142       -24.68737
1.324                  0.9932075       -24.79296
1.328                   0.993202       -24.89911
1.332                  0.9931976       -25.00582
1.336                  0.9931942       -25.11312
1.34                   0.9931914         -25.221
1.344                  0.9931894       -25.32948
1.348                   0.993188       -25.43856
1.352                   0.993187       -25.54825
1.356                  0.9931864       -25.65856
1.36                   0.9931859        -25.7695
1.364                  0.9931854       -25.88107
1.368                  0.9931847       -25.99329
1.372                   0.993184       -26.10615
1.376                  0.9931827       -26.21967
1.38                   0.9931807       -26.33386
1.384                   0.993178       -26.44871
1.388                  0.9931746       -26.56424
1.392                    0.99317       -26.68044
1.396                  0.9931642       -26.79733
1.4                     0.993157       -26.91492
1.404                  0.9931482        -27.0332
1.408                  0.9931379       -27.15217
1.412                  0.9931255       -27.27186
1.416                  0.9931111       -27.39225
1.42                   0.9930945       -27.51335
1.424                  0.9930755       -27.63517
1.428                   0.993054        -27.7577
1.432                  0.9930297       -27.88096
1.436                  0.9930025       -28.00495
1.44                   0.9929723       -28.12965
1.444                  0.9929389       -28.25509
1.448                  0.9929019       -28.38126
1.452                  0.9928615       -28.50815
1.456                  0.9928174       -28.63578
1.46                   0.9927693       -28.76415
1.464                  0.9927173       -28.89324
1.468                  0.9926611       -29.02307
1.472                  0.9926004       -29.15364
1.476                  0.9925352       -29.28493
1.48                   0.9924655       -29.41696
1.484                  0.9923909       -29.54973
1.488                  0.9923112       -29.68323
1.492                  0.9922266       -29.81746
1.496                  0.9921368       -29.95242
1.5                    0.9920415       -30.08811
1.504                  0.9919408       -30.22452
1.508                  0.9918345       -30.36166
1.512                  0.9917224       -30.49952
1.516                  0.9916044        -30.6381
1.52                   0.9914807        -30.7774
1.524                  0.9913508       -30.91742
1.528                  0.9912147       -31.05814
1.532                  0.9910723       -31.19959
1.536                  0.9909237       -31.34173
1.54                   0.9907685       -31.48458
1.544                  0.9906069       -31.62814
1.548                  0.9904386       -31.77239
1.552                  0.9902637       -31.91734
1.556                  0.9900821       -32.06298
1.56                   0.9898937       -32.20931
1.564                  0.9896984       -32.35633
1.568                  0.9894964       -32.50403
1.572                  0.9892874       -32.65241
1.576                  0.9890713       -32.80147
1.58                   0.9888483        -32.9512
1.584                  0.9886183       -33.10161
1.588                  0.9883813       -33.25268
1.592                  0.9881372       -33.40442
1.596                   0.987886       -33.55682
1.6                    0.9876279       -33.70988
1.604                  0.9873628        -33.8636
1.608                  0.9870905       -34.01798
1.612                  0.9868114       -34.17301
1.616                  0.9865252       -34.32869
1.62                   0.9862319       -34.48503
1.624                  0.9859318       -34.64201
1.628                  0.9856249       -34.79964
1.632                  0.9853112       -34.95792
1.636                  0.9849906       -35.11685
1.64                   0.9846635       -35.27642
1.644                  0.9843295       -35.43664
1.648                   0.983989       -35.59751
1.652                   0.983642       -35.75903
1.656                  0.9832885       -35.92119
1.66                   0.9829287       -36.08401
1.664                  0.9825625       -36.24748
1.668                  0.9821902       -36.41161
1.672                  0.9818118       -36.57638
1.676                  0.9814272       -36.74183
1.68                    0.981037       -36.90794
1.684                  0.9806408       -37.07471
1.688                  0.9802388       -37.24216
1.692                  0.9798313       -37.41029
1.696                  0.9794183       -37.57909
1.7                    0.9789998       -37.74859
1.704                  0.9785762       -37.91879
1.708                  0.9781474       -38.08968
1.712                  0.9777133       -38.26129
1.716                  0.9772744       -38.43362
1.72                   0.9768307       -38.60667
1.724                  0.9763823       -38.78045
1.728                  0.9759294       -38.95498
1.732                  0.9754718       -39.13027
1.736                    0.97501       -39.30633
1.74                   0.9745438       -39.48316
1.744                  0.9740735       -39.66079
1.748                  0.9735991       -39.83922
1.752                  0.9731208       -40.01847
1.756                  0.9726386       -40.19854
1.76                   0.9721528       -40.37946
1.764                  0.9716633       -40.56124
1.768                  0.9711702       -40.74389
1.772                  0.9706736       -40.92744
1.776                  0.9701736        -41.1119
1.78                   0.9696703       -41.29728
1.784                  0.9691639       -41.48361
1.788                  0.9686542        -41.6709
1.792                  0.9681415       -41.85918
1.796                  0.9676257       -42.04845
1.8                    0.9671069       -42.23876
1.804                  0.9665852        -42.4301
1.808                  0.9660604       -42.62252
1.812                  0.9655331       -42.81601
1.816                  0.9650025       -43.01062
1.82                   0.9644693       -43.20637
1.824                  0.9639332       -43.40328
1.828                  0.9633941       -43.60137
1.832                  0.9628522       -43.80066
1.836                  0.9623074       -44.00119
1.84                   0.9617597       -44.20298
1.844                   0.961209       -44.40606
1.848                  0.9606553       -44.61045
1.852                  0.9600984       -44.81618
1.856                  0.9595385       -45.02328
1.86                   0.9589751       -45.23177
1.864                  0.9584086       -45.44169
1.868                  0.9578384       -45.65307
1.872                  0.9572647       -45.86593
1.876                  0.9566873        -46.0803
1.88                   0.9561059       -46.29623
1.884                  0.9555207       -46.51372
1.888                  0.9549311       -46.73282
1.892                  0.9543371       -46.95356
1.896                  0.9537386       -47.17596
1.9                    0.9531352       -47.40007
1.904                   0.952527       -47.62591
1.908                  0.9519134       -47.85351
1.912                  0.9512944       -48.08291
1.916                  0.9506696       -48.31414
1.92                   0.9500388       -48.54723
1.924                  0.9494016       -48.78222
1.928                  0.9487579       -49.01913
1.932                  0.9481073       -49.25799
1.936                  0.9474495       -49.49886
1.94                   0.9467839       -49.74175
1.944                  0.9461106        -49.9867
1.948                  0.9454288       -50.23374
1.952                  0.9447386       -50.48291
1.956                  0.9440391       -50.73424
1.96                   0.9433303       -50.98775
1.964                  0.9426115        -51.2435
1.968                  0.9418825        -51.5015
1.972                  0.9411427        -51.7618
1.976                  0.9403917       -52.02441
1.98                   0.9396292       -52.28938
1.984                  0.9388546       -52.55673
1.988                  0.9380672       -52.82652
1.992                  0.9372669       -53.09874
1.996                  0.9364529       -53.37346
2                      0.9356249       -53.65069
2.004                  0.9347823       -53.93047
2.008                  0.9339244       -54.21283
2.012                  0.9330508        -54.4978
2.016                   0.932161        -54.7854
2.02                   0.9312544       -55.07567
2.024                  0.9303304       -55.36865
2.028                  0.9293885       -55.66435
2.032                  0.9284279       -55.96282
2.036                  0.9274483       -56.26407
2.04                   0.9264489       -56.56815
2.044                  0.9254291       -56.87507
2.048                  0.9243885       -57.18486
2.052                  0.9233264       -57.49755
2.056                  0.9222419       -57.81319
2.06                   0.9211347       -58.13176
2.064                   0.920004       -58.45334
2.068                  0.9188494       -58.77791
2.072                    0.91767       -59.10551
2.076                  0.9164651        -59.4362
2.08                   0.9152345       -59.76995
2.084                   0.913977       -60.10684
2.088                  0.9126924       -60.44685
2.092                  0.9113798       -60.79003
2.096                  0.9100386        -61.1364
2.1                    0.9086684       -61.48597
2.104                  0.9072682       -61.83879
2.108                  0.9058375       -62.19486
2.112                  0.9043757       -62.55421
2.116                  0.9028821       -62.91687
2.12                   0.9013562       -63.28285
2.124                  0.8997971       -63.65217
2.128                  0.8982044       -64.02486
2.132                  0.8965774       -64.40096
2.136                  0.8949156       -64.78046
2.14                    0.893218        -65.1634
2.144                  0.8914845        -65.5498
2.148                  0.8897141       -65.93966
2.152                  0.8879065       -66.33303
2.156                   0.886061       -66.72992
2.16                   0.8841769       -67.13033
2.164                  0.8822537       -67.53432
2.168                  0.8802908       -67.94189
2.172                  0.8782878       -68.35304
2.176                   0.876244       -68.76783
2.18                    0.874159       -69.18626
2.184                  0.8720321       -69.60834
2.188                   0.869863        -70.0341
2.192                   0.867651       -70.46357
2.196                  0.8653956       -70.89676
2.2                    0.8630965       -71.33368
2.204                  0.8607533       -71.77437
2.208                  0.8583653       -72.21885
2.212                  0.8559321       -72.66713
2.216                  0.8534533       -73.11923
2.22                   0.8509288       -73.57519
2.224                  0.8483575       -74.03502
2.228                  0.8457398       -74.49874
2.232                   0.843075       -74.96636
2.236                  0.8403626       -75.43792
2.24                   0.8376025       -75.91344
2.244                  0.8347944       -76.39297
2.248                  0.8319379       -76.87647
2.252                  0.8290326       -77.36403
2.256                  0.8260785       -77.85564
2.26                   0.8230754       -78.35132
2.264                  0.8200228       -78.85113
2.268                  0.8169207       -79.35509
2.272                  0.8137688        -79.8632
2.276                  0.8105671       -80.37549
2.28                   0.8073153       -80.89203
2.284                  0.8040134       -81.41282
2.288                  0.8006612       -81.93791
2.292                  0.7972588        -82.4673
2.296                  0.7938059       -83.00107
2.3                    0.7903026       -83.53921
2.304                   0.786749       -84.08177
2.308                  0.7831448       -84.62881
2.312                  0.7794904       -85.18034
2.316                  0.7757858       -85.73642
2.32                   0.7720309        -86.2971
2.324                  0.7682258       -86.86238
2.328                  0.7643709       -87.43233
2.332                  0.7604661       -88.00701
2.336                  0.7565115       -88.58644
2.34                   0.7525078       -89.17071
2.344                  0.7484548       -89.75983
2.348                  0.7443529       -90.35386
2.352                  0.7402024       -90.95288