! TOUCHSTONE file generated by CST MICROWAVE STUDIO
! Date and time: Tue Jun  7 21:57:01 2022
! Project name: AppElm_antenne_patch_FR4.cst
! Parameters = {L=45; W=58.5; e=0.035; h=1.6; lambda=0.190476; ls=108; w0=1.6; w1=0.533; ws=120; y0=20; y1=23.81}
! Header version: 2018
! Port assignment regex: !\s*Touchstone port\s*([0-9]+)\s*=\s*(CST MWS port|CST DS port)\s*([0-9]+|Zmin|Zmax)\s*\(\"(.*)\"\)(\s*mode\s*([0-9]+))?.*
! Touchstone port assignment:
! Touchstone port 1 = CST MWS port 1 ("")
# GHz S MA R 50
0                       0.989281              -0
0.004                  0.9899216       -9.929841
0.008                  0.9917553       -19.77259
0.012                  0.9945308       -29.44541
0.016                  0.9978728       -38.87327
0.02                    1.001336       -47.99135
0.024                   1.004473       -56.74626
0.028                   1.006888       -65.09617
0.032                   1.008297       -73.01033
0.036                   1.008557       -80.46841
0.04                    1.007682       -87.45995
0.044                   1.005835       -93.98408
0.048                   1.003309       -100.0495
0.052                   1.000479       -105.6745
0.056                  0.9977489       -110.8866
0.06                   0.9954971       -115.7215
0.064                  0.9940189       -120.2213
0.068                  0.9934861       -124.4318
0.072                  0.9939249       -128.3987
0.076                  0.9952175       -132.1645
0.08                   0.9971249        -135.765
0.084                  0.9993302       -139.2273
0.088                   1.001488       -142.5689
0.092                   1.003279       -145.7985
0.096                   1.004454        -148.917
0.1                     1.004871       -151.9201
0.104                   1.004505       -154.8009
0.108                   1.003453       -157.5526
0.112                   1.001912       -160.1711
0.116                   1.000144       -162.6568
0.12                   0.9984374       -165.0156
0.124                   0.997061       -167.2592
0.128                  0.9962193       -169.4044
0.132                  0.9960253       -171.4706
0.136                  0.9964832       -173.4784
0.14                   0.9974927        -175.446
0.144                  0.9988686       -177.3878
0.148                   1.000374       -179.3125
0.152                   1.001762        178.7772
0.156                   1.002812        176.8845
0.16                    1.003369        175.0169
0.164                   1.003359        173.1847
0.168                   1.002804        171.3984
0.172                   1.001813        169.6674
0.176                   1.000561        167.9976
0.18                   0.9992622        166.3905
0.184                  0.9981319        164.8426
0.188                   0.997352        163.3459
0.192                  0.9970416        161.8887
0.196                  0.9972389        160.4579
0.2                    0.9978967        159.0407
0.204                  0.9988915        157.6265
0.208                   1.000048        156.2087
0.212                   1.001169        154.7852
0.216                   1.002067        153.3586
0.22                    1.002599        151.9354
0.224                   1.002684        150.5247
0.228                   1.002318        149.1365
0.232                   1.001572          147.78
0.236                   1.000578        146.4618
0.24                   0.9995089         145.185
0.244                  0.9985454        143.9486
0.248                  0.9978484        142.7472
0.252                  0.9975308        141.5725
0.256                  0.9976387        140.4141
0.26                   0.9981461        139.2615
0.264                  0.9989587        138.1058
0.268                  0.9999324        136.9412
0.272                   1.000899        135.7658
0.276                   1.001693        134.5815
0.28                    1.002184        133.3939
0.284                   1.002291        132.2112
0.288                   1.002003        131.0424
0.292                   1.001375         129.896
0.296                   1.000516        128.7786
0.3                    0.9995772        127.6936
0.304                  0.9987197        126.6407
0.308                  0.9980894        125.6157
0.312                  0.9977922        124.6114
0.316                  0.9978753        123.6191
0.32                   0.9983197        122.6292
0.324                  0.9990448         121.634
0.328                   0.999922         120.628
0.332                   1.000799        119.6093
0.336                   1.001524        118.5798
0.34                    1.001975        117.5446
0.344                   1.002076        116.5111
0.348                   1.001813        115.4879
0.352                   1.001235        114.4831
0.356                   1.000443        113.5027
0.36                   0.9995761        112.5503
0.364                  0.9987846        111.6256
0.368                  0.9982055        110.7249
0.372                  0.9979382        109.8417
0.376                  0.9980272        108.9676
0.38                    0.998455         108.094
0.384                  0.9991447        107.2134
0.388                  0.9999748        106.3208
0.392                     1.0008        105.4146
0.396                   1.001477        104.4966
0.4                     1.001889        103.5718
0.404                   1.001967        102.6475
0.408                   1.001697        101.7318
0.412                   1.001128        100.8326
0.416                    1.00036        99.95573
0.42                    0.999528        99.10439
0.424                  0.9987772        98.27828
0.428                  0.9982385        97.47372
0.432                  0.9980065        96.68427
0.436                   0.998121        95.90177
0.44                    0.998561        95.11785
0.444                  0.9992487         94.3254
0.448                   1.000062        93.51978
0.452                   1.000859        92.69964
0.456                     1.0015        91.86705
0.46                    1.001872        91.02718
0.464                   1.001911        90.18732
0.468                    1.00161         89.3556
0.472                   1.001022        88.53961
0.476                   1.000249        87.74511
0.48                   0.9994273        86.97491
0.484                  0.9987009        86.22843
0.488                  0.9981981         85.5017
0.492                  0.9980077        84.78807
0.496                  0.9981635        84.07934
0.5                    0.9986382        83.36722
0.504                  0.9993476        82.64481
0.508                   1.000167        81.90783
0.512                    1.00095        81.15535
0.516                   1.001561        80.38986
0.52                    1.001889         79.6169
0.524                   1.001877        78.84405
0.528                   1.001526        78.07954
0.532                   1.000897        77.33092
0.536                   1.000098        76.60365
0.54                   0.9992711         75.9002
0.544                  0.9985616        75.21949
0.548                  0.9980957        74.55707
0.552                  0.9979567        73.90585
0.556                  0.9981703        73.25739
0.56                   0.9986997        72.60332
0.564                  0.9994512        71.93695
0.568                   1.000292        71.25437
0.572                   1.001073        70.55517
0.576                   1.001655        69.84249
0.58                    1.001933        69.12245
0.584                   1.001859        68.40302
0.588                   1.001441        67.69273
0.592                   1.000753        66.99906
0.596                  0.9999136        66.32726
0.6                    0.9990721        65.67925
0.604                  0.9983775        65.05334
0.608                  0.9979543        64.44435
0.612                  0.9978795        63.84461
0.616                  0.9981685        63.24524
0.62                    0.998771        62.63778
0.624                  0.9995812        62.01567
0.628                   1.000456        61.37552
0.632                   1.001238        60.71757
0.636                   1.001789         60.0458
0.64                    1.002009        59.36703
0.644                   1.001856        58.68983
0.648                   1.001355        58.02307
0.652                   1.000592        57.37425
0.656                  0.9997001        56.74825
0.66                    0.998838         56.1464
0.664                  0.9981597        55.56614
0.668                   0.997788        55.00143
0.672                  0.9977918        54.44381
0.676                  0.9981729        53.88389
0.68                   0.9988657        53.31301
0.684                  0.9997481        52.72487
0.688                   1.000663        52.11667
0.692                   1.001448        51.48952
0.696                    1.00196        50.84833
0.7                     1.002106        50.20086
0.704                   1.001857        49.55642
0.708                   1.001253        48.92424
0.712                   1.000399        48.31182
0.716                  0.9994438        47.72359
0.72                   0.9985579        47.16008
0.724                  0.9979006        46.61773
0.728                   0.997592        46.08941
0.732                  0.9976907        45.56572
0.736                  0.9981822        45.03665
0.74                   0.9989814        44.49339
0.744                   0.999947        43.92997
0.748                   1.000907         43.3443
0.752                   1.001688        42.73859
0.756                   1.002149        42.11886
0.76                    1.002204        41.49401
0.764                   1.001838        40.87413
0.768                   1.001112        40.26889
0.772                   1.000151         39.6857
0.776                  0.9991242        39.12845
0.78                   0.9982149        38.59665
0.784                  0.9975878         38.0855
0.788                  0.9973584         37.5866
0.792                  0.9975723        37.08945
0.796                  0.9981951        36.58337
0.8                    0.9991179        36.05944
0.804                   1.000177        35.51211
0.808                   1.001184        34.94025
0.812                   1.001955        34.34731
0.816                    1.00235        33.74074
0.82                    1.002292        33.13063
0.824                   1.001787        32.52806
0.828                   1.000918        31.94307
0.832                  0.9998353        31.38293
0.836                  0.9987309        30.85076
0.84                   0.9978027        30.34486
0.844                  0.9972196        29.85892
0.848                  0.9970911        29.38305
0.852                  0.9974454        28.90552
0.856                  0.9982235        28.41494
0.86                   0.9992894        27.90232
0.864                   1.000453        27.36274
0.868                   1.001506        26.79623
0.872                   1.002257        26.20779
0.876                   1.002566        25.60644
0.88                    1.002371        25.00376
0.884                     1.0017         24.4118
0.888                   1.000665        23.84101
0.892                  0.9994472        23.29836
0.896                  0.9982615        22.78601
0.9                    0.9973221        22.30075
0.904                  0.9968019         21.8345
0.908                  0.9968005        21.37559
0.912                  0.9973248        20.91095
0.916                  0.9982862        20.42844
0.92                   0.9995157        19.91911
0.924                   1.000794        19.37888
0.928                   1.001891        18.80924
0.932                   1.002606          18.217
0.936                   1.002804         17.6131
0.94                    1.002441         17.0107
0.944                   1.001573        16.42298
0.948                   1.000347        15.86074
0.952                  0.9989758         15.3305
0.956                  0.9977048        14.83317
0.96                   0.9967645        14.36371
0.964                  0.9963298        13.91189
0.968                  0.9964871        13.46404
0.972                  0.9972162        13.00553
0.976                  0.9983926        12.52348
0.98                   0.9998087        12.00914
0.984                   1.001212        11.45953
0.988                   1.002347        10.87792
0.992                   1.003006        10.27331
0.996                   1.003061        9.658851
1                       1.002491        9.049564
1.004                   1.001386        8.459807
1.008                  0.9999341         7.90071
1.012                  0.9983895        7.378123
1.016                   0.997028        6.891381
1.02                   0.9960991        6.433195
1.024                   0.995778        5.990779
1.028                  0.9961326        5.548094
1.032                   0.997109        5.088773
1.036                   0.998539        4.599179
1.04                     1.00017         4.07094
1.044                   1.001708        3.502484
1.048                   1.002875        2.899316
1.052                   1.003451        2.273055
1.056                   1.003322        1.639438
1.06                    1.002496        1.015653
1.064                   1.001104       0.4173834
1.068                  0.9993843      -0.1439707
1.072                  0.9976385      -0.6634668
1.076                  0.9961801       -1.143766
1.08                   0.9952781       -1.594942
1.084                  0.9951061       -2.032874
1.088                  0.9957078       -2.476426
1.092                   0.996987       -2.943962
1.096                  0.9987218       -3.449904
1.1                     1.000604       -4.002038
1.104                   1.002296       -4.600096
1.108                   1.003486       -5.235849
1.112                   1.003949       -5.894471
1.116                   1.003584       -6.557108
1.12                    1.002436       -7.203982
1.124                   1.000692       -7.817934
1.128                   0.998648       -8.387266
1.132                  0.9966642       -8.908267
1.136                  0.9950987       -9.386126
1.14                   0.9942435       -9.834407
1.144                   0.994268       -10.27282
1.148                  0.9951846        -10.7237
1.152                  0.9968432       -11.20778
1.156                  0.9989551       -11.74035
1.16                    1.001145       -12.32836
1.164                   1.003016        -12.9692
1.168                   1.004224       -13.65117
1.172                   1.004532       -14.35548
1.176                   1.003862       -15.05942
1.18                    1.002306       -15.74008
1.184                   1.000115       -16.37833
1.188                  0.9976639       -16.96227
1.192                  0.9953845       -17.48971
1.196                  0.9936915       -17.96911
1.2                    0.9929054       -18.41851
1.204                  0.9931893       -18.86254
1.208                   0.994515       -19.32795
1.212                  0.9966622       -19.83849
1.216                  0.9992571        -20.4105
1.22                    1.001837       -21.04979
1.224                   1.003934       -21.75071
1.228                   1.005154       -22.49714
1.232                   1.005253        -23.2652
1.236                   1.004176       -24.02716
1.24                    1.002075       -24.75601
1.244                  0.9992915       -25.43004
1.248                  0.9962976       -26.03691
1.252                  0.9936225       -26.57641
1.256                  0.9917567       -27.06125
1.26                   0.9910597       -27.51548
1.264                  0.9916884       -27.97035
1.268                  0.9935602       -28.45859
1.272                  0.9963627       -29.00813
1.276                  0.9996065       -29.63673
1.28                    1.002712       -30.34881
1.284                   1.005109       -31.13469
1.288                   1.006342       -31.97237
1.292                   1.006146       -32.83107
1.296                   1.004498       -33.67625
1.3                     1.001631       -34.47503
1.304                  0.9980021       -35.20188
1.308                  0.9942242       -35.84345
1.312                  0.9909642       -36.40197
1.316                  0.9888243       -36.89597
1.32                    0.988226       -37.35797
1.324                   0.989323       -37.82889
1.328                  0.9919609       -38.35033
1.332                  0.9956976       -38.95649
1.336                  0.9998784       -39.66766
1.34                    1.003751       -40.48657
1.344                   1.006596       -41.39811
1.348                   1.007853       -42.37199
1.352                   1.007219       -43.36758
1.356                   1.004707       -44.34006
1.36                    1.000658       -45.24743
1.364                     0.9957       -46.05756
1.368                  0.9906559       -46.75462
1.372                  0.9864117       -47.34354
1.376                  0.9837553        -47.8513
1.38                   0.9832235       -48.32355
1.384                  0.9849827        -48.8169
1.388                  0.9887806       -49.38791
1.392                  0.9939784       -50.08193
1.396                  0.9996586       -50.92442
1.4                     1.004786       -51.91662
1.404                   1.008382       -53.03579
1.408                   1.009697        -54.2392
1.412                   1.008332       -55.47057
1.416                   1.004324       -56.66802
1.42                   0.9981635       -57.77308
1.424                  0.9907475       -58.74019
1.428                  0.9832585       -59.54627
1.432                  0.9769831       -60.19815
1.436                  0.9730815       -60.73585
1.44                   0.9723511       -61.22877
1.444                  0.9750408       -61.76412
1.448                  0.9807641       -62.42965
1.452                  0.9885436       -63.29581
1.456                  0.9969721       -64.40234
1.46                    1.004452       -65.75225
1.464                   1.009459       -67.31292
1.468                   1.010781        -69.0221
1.472                   1.007718       -70.79648
1.476                   1.000213       -72.54159
1.48                   0.9889189       -74.16313
1.484                  0.9751689       -75.58064
1.488                   0.960858       -76.74408
1.492                  0.9481919        -77.6516
1.496                  0.9393159       -78.36408
1.5                    0.9358625       -79.00774
1.504                  0.9385218       -79.75831
1.508                   0.946769       -80.80754
1.512                  0.9588512       -82.32414
1.516                   0.972025       -84.42473
1.52                   0.9829488       -87.16341
1.524                  0.9881048       -90.53807
1.528                  0.9841601       -94.50472
1.532                  0.9682338       -98.99229
1.536                  0.9380724       -103.9132
1.54                   0.8921553        -109.168
1.544                  0.8297464       -114.6432
1.548                  0.7509123       -120.1999
1.552                  0.6565218       -125.6444
1.556                  0.5482582       -130.6568
1.56                   0.4287307       -134.5857
1.564                  0.3020722       -135.7163
1.568                  0.1775988       -127.6024
1.572                  0.1019306       -81.53228
1.576                   0.172805       -33.20787
1.58                   0.2968822       -24.36095
1.584                  0.4239449       -25.33853
1.588                  0.5441632       -29.25784
1.592                  0.6532614       -34.31988
1.596                   0.748533       -39.84964
1.6                    0.8282026        -45.5183
1.604                  0.8913102       -51.12801
1.608                  0.9377019       -56.53671
1.612                  0.9680373       -61.62779
1.616                  0.9837808       -66.29784
1.62                   0.9871602       -70.45385
1.624                  0.9810757       -74.01765
1.628                  0.9689358       -76.93683
1.632                  0.9543971        -79.2009
1.636                  0.9409975       -80.85833
1.64                   0.9317069       -82.02609
1.644                  0.9284863       -82.88147
1.648                  0.9319939         -83.632
1.652                  0.9415625       -84.47196
1.656                  0.9554665       -85.54359
1.66                     0.97138       -86.91769
1.664                  0.9868689       -88.59562
1.668                  0.9998018       -90.52496
1.672                   1.008627       -92.61914
1.676                   1.012518       -94.77515
1.68                    1.011416       -96.88788
1.684                   1.005976        -98.8617
1.688                   0.997451       -100.6209
1.692                  0.9875022       -102.1197
1.696                  0.9779484       -103.3503
1.7                    0.9704802        -104.347
1.704                  0.9663756       -105.1827
1.708                  0.9662787       -105.9564
1.712                  0.9701005       -106.7729
1.716                  0.9770713       -107.7218
1.72                   0.9859253        -108.861
1.724                  0.9951619       -110.2097
1.728                   1.003317       -111.7504
1.732                   1.009191       -113.4368
1.736                   1.012011       -115.2039
1.74                    1.011512       -116.9787
1.744                   1.007951         -118.69
1.748                    1.00205       -120.2778
1.752                  0.9948805       -121.7014
1.756                   0.987694       -122.9459
1.76                   0.9817238       -124.0264
1.764                  0.9779741       -124.9859
1.768                   0.977048        -125.889
1.772                  0.9790434        -126.809
1.776                  0.9835512       -127.8137
1.78                   0.9897491       -128.9527
1.784                  0.9965672       -130.2497
1.788                   1.002884       -131.7009
1.792                   1.007712       -133.2782
1.796                   1.010341        -134.936
1.8                     1.010436       -136.6187
1.804                   1.008069       -138.2693
1.808                     1.0037       -139.8367
1.812                  0.9980963       -141.2838
1.816                  0.9922183       -142.5923
1.82                   0.9870598       -143.7672
1.824                  0.9834852       -144.8363
1.828                  0.9820791       -145.8465
1.832                  0.9830456       -146.8546
1.836                  0.9861782       -147.9168
1.84                    0.990907       -149.0783
1.844                  0.9964122       -150.3652
1.848                   1.001775       -151.7818
1.852                    1.00613       -153.3111
1.856                   1.008806       -154.9195
1.86                    1.009417       -156.5624
1.864                   1.007912       -158.1916
1.868                    1.00458       -159.7616
1.872                  0.9999964       -161.2364
1.876                   0.994935       -162.5954
1.88                   0.9902446       -163.8364
1.884                  0.9867088       -164.9773
1.888                  0.9849119       -166.0535
1.892                  0.9851375       -167.1114
1.896                    0.98732       -168.2002
1.9                    0.9910632       -169.3624
1.904                  0.9957169       -170.6264
1.908                   1.000497       -172.0024
1.912                   1.004619       -173.4815
1.916                   1.007428       -175.0388
1.92                    1.008492       -176.6374
1.924                   1.007668       -178.2351
1.928                   1.005115       -179.7898
1.932                   1.001268        178.7337
1.936                  0.9967706        177.3587
1.94                    0.992372        176.0928
1.944                  0.9888056        174.9255
1.948                  0.9866646        173.8297
1.952                  0.9862984        172.7664
1.956                  0.9877522        171.6911
1.96                   0.9907607        170.5628
1.964                  0.9948004         169.351
1.968                  0.9991857        168.0407
1.972                   1.003188        166.6343
1.976                   1.006157          165.15
1.98                     1.00762        163.6186
1.984                   1.007354        162.0781
1.988                   1.005417         160.568
1.992                   1.002134        159.1236
1.996                  0.9980492        157.7707
2                      0.9938391         156.521
2.004                  0.9902053        155.3702
2.008                  0.9877545        154.2974
2.012                  0.9868943        153.2691
2.016                  0.9877602        152.2444
2.02                   0.9901928         151.183
2.024                  0.9937679        150.0522
2.028                  0.9978747         148.833
2.032                   1.001824        147.5221
2.036                   1.004961        146.1326
2.04                    1.006777        144.6903
2.044                   1.006979        143.2299
2.048                   1.005537        141.7893
2.052                   1.002688        140.4042
2.056                  0.9988999        139.1026
2.06                   0.9947955        137.9004
2.064                  0.9910567        136.7978
2.068                  0.9883093        135.7793
2.072                  0.9870151        134.8154
2.076                  0.9873887        133.8678
2.08                   0.9893589        132.8963
2.084                  0.9925821         131.866
2.088                  0.9965044        130.7538
2.092                   1.000461        129.5522
2.096                   1.003788         128.269
2.1                     1.005933        126.9266
2.104                   1.006538         125.557
2.108                   1.005498        124.1975
2.112                   1.002975        122.8845
2.116                  0.9993732        121.6486
2.12                   0.9952792        120.5092
2.124                  0.9913692        119.4713
2.128                  0.9882965        118.5235
2.132                  0.9865803        117.6397
2.136                  0.9865114        116.7829
2.14                   0.9880984        115.9124
2.144                  0.9910653        114.9907
2.148                  0.9949011        113.9906
2.152                  0.9989501        112.8997
2.156                   1.002525         111.722
2.16                    1.005021        110.4763
2.164                   1.006011        109.1932
2.168                   1.005313        107.9098
2.172                   1.003018        106.6646
2.176                  0.9994798        105.4911
2.18                   0.9952625        104.4132
2.184                  0.9910526        103.4402
2.188                  0.9875493         102.565
2.192                  0.9853438        101.7641
2.196                  0.9848142        101.0012
2.2                    0.9860533        100.2337
2.204                  0.9888488           99.42
2.208                  0.9927201        98.52787
2.212                  0.9970023        97.53945
2.216                   1.000961        96.45414
2.22                    1.003915        95.28794
2.224                   1.005345        94.07046
2.228                   1.004974        92.84012
2.232                   1.002817        91.63847
2.236                  0.9991776        90.50409
2.24                   0.9946094        89.46655
2.244                  0.9898356         88.5413
2.248                  0.9856346        87.72607
2.252                  0.9827095        87.00005
2.256                  0.9815631         86.3264
2.26                    0.982401         85.6584
2.264                  0.9850881         84.9478
2.268                  0.9891671        84.15392
2.272                  0.9939361         83.2509
2.276                  0.9985681        82.23169
2.28                    1.002249         81.1087
2.284                   1.004306        79.91124
2.288                   1.004317        78.68077
2.292                   1.002176        77.46498
2.296                   0.998118        76.31104
2.3                     0.992698        75.25867
2.304                   0.986716        74.33348
2.308                  0.9811021        73.54143
2.312                  0.9767677        72.86581
2.316                  0.9744456        72.26785
2.32                   0.9745486        71.69227
2.324                  0.9770784        71.07679
2.328                  0.9816104        70.36363
2.332                  0.9873552        69.51024
2.336                   0.993287        68.49648
2.34                   0.9983089        67.32722
2.344                   1.001424        66.03082
2.348                   1.001886        64.65462
2.352                  0.9993193        63.25854