! TOUCHSTONE file generated by CST MICROWAVE STUDIO
! Date and time: Tue Jun  7 21:57:00 2022
! Project name: AppElm_antenne_patch_FR4.cst
! Parameters = {L=45; W=58.5; e=0.035; h=1.6; lambda=0.190476; ls=102; w0=1.6; w1=0.533; ws=120; y0=20; y1=23.81}
! Header version: 2018
! Port assignment regex: !\s*Touchstone port\s*([0-9]+)\s*=\s*(CST MWS port|CST DS port)\s*([0-9]+|Zmin|Zmax)\s*\(\"(.*)\"\)(\s*mode\s*([0-9]+))?.*
! Touchstone port assignment:
! Touchstone port 1 = CST MWS port 1 ("")
# GHz S MA R 50
0                      0.9893416              -0
0.004                  0.9899801       -9.930703
0.008                  0.9918078       -19.77425
0.012                  0.9945735       -29.44775
0.016                  0.9979024       -38.87611
0.02                    1.001351       -47.99448
0.024                    1.00447       -56.74941
0.028                   1.006869       -65.09906
0.032                   1.008263       -73.01271
0.036                    1.00851       -80.46999
0.04                    1.007627       -87.46055
0.044                   1.005778       -93.98358
0.048                   1.003256       -100.0479
0.052                   1.000436       -105.6719
0.056                   0.997722       -110.8832
0.06                     0.99549       -115.7176
0.064                  0.9940331       -120.2175
0.068                  0.9935201       -124.4284
0.072                  0.9939749       -128.3961
0.076                  0.9952768        -132.163
0.08                   0.9971861       -135.7648
0.084                  0.9993844       -139.2282
0.088                   1.001528       -142.5709
0.092                   1.003299       -145.8011
0.096                   1.004451       -148.9197
0.1                     1.004845       -151.9224
0.104                   1.004461       -154.8024
0.108                   1.003397       -157.5529
0.112                   1.001852       -160.1701
0.116                   1.000089       -162.6544
0.12                   0.9983976        -165.012
0.124                  0.9970413        -167.255
0.128                  0.9962236       -169.3999
0.132                  0.9960526       -171.4665
0.136                  0.9965294        -173.475
0.14                   0.9975504       -175.4438
0.144                  0.9989286        -177.387
0.148                   1.000427        -179.313
0.152                   1.001798        178.7757
0.156                   1.002827        176.8825
0.16                    1.003359        175.0148
0.164                   1.003326        173.1831
0.168                   1.002753        171.3978
0.172                   1.001752        169.6682
0.176                   1.000501        167.9998
0.18                   0.9992126        166.3941
0.184                  0.9981005        164.8472
0.188                  0.9973442        163.3509
0.192                  0.9970589        161.8937
0.196                  0.9972785        160.4622
0.2                    0.9979516        159.0439
0.204                  0.9989528        157.6283
0.208                   1.000105        156.2091
0.212                   1.001212        154.7844
0.216                   1.002089         153.357
0.22                    1.002596        151.9337
0.224                   1.002656        150.5233
0.228                    1.00227        149.1361
0.232                   1.001512        147.7808
0.236                   1.000516        146.4641
0.24                   0.9994556        145.1888
0.244                  0.9985097        143.9535
0.248                  0.9978365        142.7528
0.252                  0.9975447        141.5781
0.256                  0.9976764         140.419
0.26                   0.9982009        139.2653
0.264                  0.9990213        138.1082
0.268                  0.9999921        136.9422
0.272                   1.000945        135.7655
0.276                   1.001718        134.5803
0.28                    1.002183        133.3925
0.284                   1.002265        132.2101
0.288                   1.001956        131.0422
0.292                   1.001314        129.8971
0.296                   1.000453        128.7813
0.3                     0.999522        127.6978
0.304                  0.9986824         126.646
0.308                  0.9980766        125.6216
0.312                  0.9978061        124.6174
0.316                  0.9979138        123.6244
0.32                   0.9983761        122.6335
0.324                  0.9991093        121.6367
0.328                  0.9999835        120.6292
0.332                   1.000846        119.6092
0.336                    1.00155        118.5788
0.34                    1.001974        117.5434
0.344                   1.002048        116.5103
0.348                   1.001764         115.488
0.352                   1.001172        114.4845
0.356                   1.000378        113.5058
0.36                   0.9995203        112.5548
0.364                  0.9987478        111.6313
0.368                  0.9981944        110.7313
0.372                  0.9979549         109.848
0.376                  0.9980688        108.9732
0.38                   0.9985145        108.0984
0.384                  0.9992119        107.2163
0.388                   1.000038        106.3221
0.392                   1.000848        105.4146
0.396                   1.001502        104.4957
0.4                     1.001886        103.5707
0.404                   1.001936        102.6469
0.408                   1.001644        101.7322
0.412                   1.001062        100.8345
0.416                   1.000294        99.95925
0.42                   0.9994725        99.10944
0.424                  0.9987422        98.28449
0.428                  0.9982308        97.48052
0.432                  0.9980276        96.69094
0.436                  0.9981673        95.90764
0.44                   0.9986247        95.12241
0.444                  0.9993186        94.32834
0.448                   1.000126         93.5211
0.452                   1.000906        92.69961
0.456                   1.001521        91.86623
0.46                    1.001864        91.02621
0.464                   1.001875        90.18692
0.468                   1.001553        89.35637
0.472                   1.000953        88.54198
0.476                   1.000181         87.7492
0.48                   0.9993724        86.98056
0.484                  0.9986691        86.23518
0.488                  0.9981955        85.50892
0.492                  0.9980349        84.79503
0.496                   0.998216        84.08536
0.5                    0.9987069        83.37178
0.504                  0.9994205        82.64765
0.508                   1.000231        81.90903
0.512                   1.000995        81.15522
0.516                   1.001577        80.38901
0.52                    1.001875        79.61607
0.524                   1.001835        78.84394
0.528                   1.001463        78.08077
0.532                   1.000824        77.33387
0.536                   1.000029        76.60839
0.54                   0.9992184        75.90651
0.544                   0.998535        75.22684
0.548                  0.9981003        74.56475
0.552                  0.9979924        73.91311
0.556                   0.998231         73.2635
0.56                   0.9987748         72.6078
0.564                  0.9995276         71.9396
0.568                   1.000356        71.25533
0.572                   1.001113        70.55488
0.576                   1.001665        69.84161
0.58                    1.001912        69.12174
0.584                   1.001808        68.40326
0.588                   1.001372         67.6945
0.592                   1.000677        67.00269
0.596                  0.9998452        66.33276
0.6                    0.9990237        65.68629
0.604                  0.9983587        65.06131
0.608                  0.9979689        64.45248
0.612                   0.997926        63.85207
0.616                  0.9982389        63.25134
0.62                   0.9988536        62.64205
0.624                  0.9996616        62.01802
0.628                    1.00052        61.37614
0.632                   1.001275        60.71705
0.636                   1.001793        60.04486
0.64                    1.001979        59.36648
0.644                   1.001798        58.69048
0.648                    1.00128        58.02547
0.652                   1.000513        57.37866
0.656                  0.9996336        56.75459
0.66                   0.9987962        56.15422
0.664                  0.9981511        55.57473
0.668                  0.9978152        55.00994
0.672                   0.997851        54.45139
0.676                  0.9982548        53.88985
0.68                   0.9989563        53.31696
0.684                   0.999832         52.7268
0.688                   1.000726        52.11691
0.692                   1.001479        51.48872
0.696                   1.001955        50.84732
0.7                     1.002066        50.20055
0.704                    1.00179        49.55758
0.708                   1.001172        48.92738
0.712                   1.000319        48.31712
0.716                  0.9993811        47.73085
0.72                   0.9985249        47.16874
0.724                  0.9979048        46.62695
0.728                  0.9976343        46.09827
0.732                  0.9977648        45.57334
0.736                  0.9982764        45.04238
0.74                   0.9990802        44.49692
0.744                   1.000034        43.93138
0.748                   1.000967        43.34409
0.752                   1.001713         42.7375
0.756                   1.002135        42.11786
0.76                    1.002154        41.49401
0.764                   1.001763        40.87592
0.768                   1.001027        40.27291
0.772                   1.000072        39.69203
0.776                  0.9990683        39.13673
0.78                   0.9981941        38.60619
0.784                   0.997608        38.09535
0.788                  0.9974186        37.59574
0.792                  0.9976638        37.09701
0.796                  0.9983036        36.58873
0.8                     0.999226         36.0624
0.804                   1.000267         35.5129
0.808                   1.001241         34.9395
0.812                   1.001972        34.34594
0.816                   1.002324        33.73976
0.82                    1.002231        33.13104
0.824                   1.001703        32.53058
0.828                   1.000829        31.94808
0.832                    0.99976        31.39036
0.836                  0.9986853         30.8601
0.84                   0.9977983        30.35525
0.844                  0.9972604         29.8693
0.848                  0.9971732        29.39233
0.852                  0.9975571        28.91281
0.856                   0.998348        28.41971
0.86                   0.9994071         27.9045
0.864                   1.000546        27.36272
0.868                    1.00156        26.79481
0.872                   1.002265        26.20602
0.876                   1.002529        25.60547
0.88                    1.002299        25.00458
0.884                   1.001609        24.41509
0.888                   1.000576        23.84704
0.892                  0.9993781        23.30691
0.896                  0.9982296        22.79637
0.9                    0.9973376         22.3119
0.904                  0.9968666        21.84521
0.908                  0.9969071        21.38475
0.912                  0.9974584        20.91767
0.916                  0.9984269        20.43229
0.92                   0.9996421        19.92019
0.924                   1.000887        19.37778
0.928                   1.001938        18.80695
0.932                   1.002602        18.21473
0.936                   1.002753        17.61207
0.94                    1.002357        17.01193
0.944                   1.001474        16.42708
0.948                   1.000256        15.86784
0.952                  0.9989139        15.34017
0.956                  0.9976883        14.84451
0.96                    0.996802        14.37548
0.964                  0.9964202        13.92276
0.968                  0.9966192        13.47282
0.972                  0.9973714         13.0114
0.976                  0.9985475        12.52613
0.98                   0.9999405        12.00887
0.984                   1.001301        11.45715
0.988                   1.002382        10.87464
0.992                   1.002984         10.2705
0.996                   1.002991        9.657817
1                       1.002389        9.051315
1.004                   1.001276        8.464868
1.008                   0.999841        7.909021
1.012                  0.9983354        7.389032
1.016                  0.9970289        6.903742
1.02                   0.9961609        6.445564
1.024                  0.9958958        6.001681
1.028                  0.9962912        5.556296
1.032                  0.9972853        5.093524
1.036                  0.9987065        4.600355
1.04                    1.000303        4.069069
1.044                   1.001788        3.498646
1.048                   1.002892        2.894955
1.052                   1.003406        2.269721
1.056                   1.003228        1.638519
1.06                    1.002373         1.01813
1.064                   1.000981       0.4236512
1.068                  0.9992891      -0.1341925
1.072                  0.9975942       -0.651107
1.076                  0.9962015       -1.130255
1.08                   0.9953684       -1.581965
1.084                  0.9952556       -2.022055
1.088                  0.9958961       -2.469024
1.092                   0.997186       -2.940623
1.096                  0.9989012       -3.450533
1.1                     1.000737       -4.005821
1.104                   1.002363       -4.605641
1.108                    1.00348       -5.241451
1.112                   1.003874       -5.898378
1.116                    1.00346       -6.557846
1.12                     1.00229       -7.200648
1.124                   1.000555       -7.810256
1.128                  0.9985512       -8.375822
1.132                  0.9966322       -8.894312
1.136                  0.9951449       -9.371428
1.14                    0.994367       -9.820927
1.144                  0.9944539       -10.26235
1.148                   0.995406        -10.7175
1.152                  0.9970661       -11.20636
1.156                  0.9991449       -11.74334
1.16                    1.001272       -12.33459
1.164                   1.003063       -12.97691
1.168                   1.004185       -13.65833
1.172                    1.00442       -14.36013
1.176                     1.0037       -15.05999
1.18                    1.002127       -15.73571
1.184                  0.9999581       -16.36901
1.188                  0.9975634       -16.94889
1.192                  0.9953659       -17.47395
1.196                  0.9937659       -17.95314
1.2                    0.9930671       -18.40463
1.204                  0.9934165       -18.85274
1.208                  0.9947727       -19.32348
1.212                  0.9969096       -19.83967
1.216                  0.9994542       -20.41659
1.22                    1.001952        -21.0592
1.224                   1.003949       -21.76122
1.228                    1.00507       -22.50632
1.232                   1.005086       -23.27082
1.236                   1.003959       -24.02756
1.24                    1.001852        -24.7504
1.244                  0.9991057       -25.41868
1.248                  0.9961888       -26.02113
1.252                  0.9936176        -26.5584
1.256                  0.9918641       -27.04375
1.26                   0.9912674       -27.50122
1.264                  0.9919651       -27.96156
1.268                  0.9938611       -28.45656
1.272                  0.9966373       -29.01288
1.276                  0.9998081       -29.64708
1.28                    1.002805       -30.36258
1.284                   1.005078       -31.14906
1.288                   1.006192       -31.98439
1.292                   1.005903       -32.83816
1.296                   1.004205       -33.67658
1.3                     1.001342       -34.46792
1.304                  0.9977721       -35.18794
1.308                  0.9940995       -35.82458
1.312                  0.9909738        -36.3811
1.316                  0.9889733       -36.87659
1.32                   0.9884936       -37.34348
1.324                  0.9896655       -37.82189
1.328                   0.992319       -38.35211
1.332                  0.9960073       -38.96676
1.336                   1.000082       -39.68459
1.34                    1.003809       -40.50716
1.344                   1.006492       -41.41871
1.348                     1.0076        -42.3889
1.352                   1.006856       -43.37762
1.356                   1.004292       -44.34116
1.36                    1.000262       -45.23895
1.364                  0.9953924       -46.04059
1.368                   0.990495       -46.73188
1.372                  0.9864309       -47.31909
1.376                  0.9839558       -47.82984
1.38                   0.9835721       -48.30955
1.384                  0.9854165       -48.81365
1.388                  0.9892174       -49.39681
1.392                  0.9943316       -50.10223
1.396                  0.9998533       -50.95335
1.4                     1.004772       -51.94992
1.404                   1.008144       -53.06846
1.408                   1.009255       -54.26627
1.412                   1.007741       -55.48789
1.416                   1.003669       -56.67287
1.42                   0.9975436       -57.76475
1.424                    0.99026       -58.72035
1.428                  0.9829837       -59.51893
1.432                  0.9769665       -60.16931
1.436                  0.9733212       -60.71256
1.44                   0.9727945       -61.21772
1.444                  0.9755898       -61.77019
1.448                  0.9812929       -62.45479
1.452                    0.98892       -63.33867
1.456                   0.997082       -64.45855
1.46                    1.004219       -65.81534
1.464                   1.008855       -67.37534
1.468                   1.009836       -69.07636
1.472                   1.006514       -70.83613
1.476                  0.9988768       -72.56209
1.48                   0.9876041        -74.1628
1.484                  0.9740368       -75.56146
1.488                  0.9600477       -76.71217
1.492                  0.9477899       -77.61728
1.496                  0.9393275       -78.34057
1.5                    0.9361951       -79.00874
1.504                  0.9389874       -79.79473
1.508                  0.9471101       -80.88483
1.512                    0.95878       -82.44121
1.516                   0.971267       -84.57457
1.52                   0.9812778       -87.33488
1.524                  0.9853645       -90.71779
1.528                  0.9802741       -94.67836
1.532                  0.9632058       -99.14505
1.536                  0.9319828       -104.0296
1.54                   0.8851527        -109.231
1.544                  0.8220407       -114.6321
1.548                  0.7427676       -120.0869
1.552                  0.6482549       -125.3884
1.556                   0.540249       -130.1879
1.56                   0.4214718       -133.7672
1.564                  0.2963609       -134.2245
1.568                  0.1754651       -124.5148
1.572                  0.1092097       -78.02631
1.576                  0.1818699       -34.23412
1.58                   0.3037417        -25.5818
1.584                  0.4288543       -26.36224
1.588                  0.5473268       -30.10443
1.592                  0.6548304       -35.02393
1.596                  0.7486625       -40.43545
1.6                    0.8270757       -46.00178
1.604                  0.8891436       -51.51971
1.608                  0.9347454       -56.84395
1.612                   0.964566       -61.85622
1.616                  0.9800844       -66.45264
1.62                   0.9835271       -70.54097
1.624                  0.9777737       -74.04494
1.628                  0.9661883       -76.91504
1.632                  0.9523575       -79.14418
1.636                  0.9397258       -80.78369
1.64                    0.931157       -81.95147
1.644                  0.9285115       -82.82255
1.648                  0.9323759       -83.59912
1.652                  0.9420555       -84.46837
1.656                  0.9558443       -85.56587
1.66                   0.9714717        -86.9578
1.664                  0.9865777       -88.64335
1.668                  0.9991088       -90.57008
1.672                   1.007581       -92.65282
1.676                   1.011224       -94.79082
1.68                    1.010009       -96.88165
1.684                   1.004609       -98.83268
1.688                  0.9962661       -100.5713
1.692                  0.9866129       -102.0546
1.696                   0.977421        -103.277
1.7                    0.9703231       -104.2742
1.704                  0.9665371       -105.1187
1.708                  0.9666574       -105.9073
1.712                   0.970566       -106.7419
1.716                   0.977489       -107.7082
1.72                   0.9861808       -108.8609
1.724                  0.9951785       -110.2175
1.728                   1.003064       -111.7594
1.732                   1.008686       -113.4409
1.736                    1.01131       -115.1978
1.74                    1.010703        -116.959
1.744                   1.007135       -118.6554
1.748                   1.001329       -120.2292
1.752                  0.9943403       -121.6417
1.756                   0.987391         -122.88
1.76                   0.9816745         -123.96
1.764                  0.9781533        -124.925
1.768                  0.9773927       -125.8382
1.772                  0.9794656        -126.771
1.776                  0.9839542       -127.7887
1.78                   0.9900452       -128.9386
1.784                  0.9966921       -130.2426
1.788                   1.002806        -131.696
1.792                   1.007434       -133.2707
1.796                     1.0099       -134.9216
1.8                     1.009894       -136.5944
1.804                   1.007504       -138.2336
1.808                    1.00319         -139.79
1.812                  0.9977136        -141.228
1.816                  0.9920119        -142.531
1.82                   0.9870502       -143.7048
1.824                  0.9836602       -144.7774
1.828                  0.9823956       -145.7951
1.832                  0.9834377       -146.8131
1.836                  0.9865697       -147.8859
1.84                   0.9912249       -149.0567
1.844                  0.9965995       -150.3501
1.848                   1.001799       -151.7694
1.852                   1.005987       -153.2975
1.856                   1.008519        -154.901
1.86                    1.009033       -156.5363
1.864                   1.007493       -158.1562
1.868                   1.004193       -159.7169
1.872                  0.9997025       -161.1839
1.876                  0.9947806       -162.5376
1.88                    0.990253       -163.7769
1.884                  0.9868761       -164.9201
1.888                  0.9852076        -166.002
1.892                  0.9855097       -167.0681
1.896                  0.9877055        -168.166
1.9                    0.9913982       -169.3365
1.904                  0.9959486       -170.6069
1.908                   1.000592       -171.9861
1.912                   1.004567        -173.465
1.916                   1.007244       -175.0187
1.92                    1.008214       -176.6112
1.924                   1.007346       -178.2011
1.928                   1.004807       -179.7477
1.932                   1.001031         178.783
1.936                  0.9966482        177.4131
1.94                   0.9923898        176.1493
1.944                  0.9889657        174.9806
1.948                  0.9869452        173.8803
1.952                  0.9866576          172.81
1.956                  0.9881351        171.7266
1.96                   0.9911099        170.5905
1.964                  0.9950658        169.3724
1.968                  0.9993326        168.0585
1.972                   1.003203        166.6515
1.976                   1.006048        165.1697
1.98                    1.007416        163.6434
1.984                     1.0071        162.1096
1.988                   1.005165        160.6068
1.992                   1.001936        159.1691
1.996                  0.9979475        157.8212
2                       0.993862        156.5739
2.004                  0.9903591        155.4223
2.008                  0.9880235        154.3459
2.012                  0.9872434        153.3115
2.016                  0.9881409        152.2793
2.02                   0.9905518        151.2104
2.024                  0.9940566        150.0734
2.028                  0.9980577        148.8502
2.032                   1.001884        147.5382
2.036                   1.004903        146.1505
2.04                    1.006624        144.7124
2.044                    1.00677         143.258
2.048                   1.005321        141.8242
2.052                   1.002514        140.4455
2.056                  0.9988109        139.1489
2.06                   0.9948201        137.9492
2.064                  0.9912046        136.8464
2.068                  0.9885694        135.8247
2.072                  0.9873565        134.8553
2.076                   0.987767        133.9007
2.08                   0.9897234        132.9218
2.084                  0.9928851        131.8853
2.088                  0.9967097         130.769
2.092                   1.000549        129.5658
2.096                   1.003761        128.2839
2.1                      1.00581        126.9453
2.104                   1.006355        125.5813
2.108                   1.005302        124.2282
2.112                   1.002813        122.9214
2.116                  0.9992892        121.6905
2.12                   0.9953027        120.5539
2.124                  0.9915121         119.516
2.128                  0.9885506        118.5654
2.132                  0.9869176        117.6763
2.136                  0.9868891        116.8127
2.14                   0.9884671         115.935
2.144                  0.9913772         115.007
2.148                  0.9951185        114.0025
2.152                  0.9990523        112.9098
2.156                   1.002511         111.733
2.16                    1.004909        110.4909
2.164                   1.005836        109.2132
2.168                    1.00512        107.9362
2.172                   1.002856        106.6973
2.176                  0.9993928        105.5289
2.18                   0.9952816        104.4538
2.184                  0.9911915         103.481
2.188                  0.9878008        102.6031
2.192                  0.9856814         101.797
2.196                  0.9851952        101.0272
2.2                    0.9864272        100.2522
2.204                  0.9891661        99.43196
2.208                  0.9929414        98.53516
2.212                  0.9971047        97.54473
2.216                   1.000942        96.46031
2.22                    1.003793        95.29768
2.224                   1.005155        94.08576
2.228                   1.004764        92.86205
2.232                   1.002636        91.66697
2.236                  0.9990725        90.53791
2.24                   0.9946142        89.50352
2.244                  0.9899659        88.57853
2.248                   0.985884        87.76048
2.252                  0.9830505        87.02889
2.256                  0.9819504        86.34781
2.26                   0.9827806        85.67174
2.264                  0.9854058        84.95393
2.268                  0.9893791        84.15491
2.272                  0.9940167        83.24962
2.276                  0.9985138        82.23135
2.28                    1.002079        81.11226
2.284                   1.004058        79.92094
2.288                   1.004043        78.69783
2.292                   1.001932        77.48937
2.296                  0.9979562        76.34147
2.3                    0.9926577        75.29271
2.304                  0.9868162        74.36792
2.308                  0.9813369         73.5727
2.312                  0.9771065        72.89064
2.316                  0.9748365        72.28393
2.32                   0.9749272        71.69877
2.324                  0.9773797        71.07455
2.328                  0.9817798        70.35511
2.332                  0.9873594        69.49895
2.336                  0.9931191        68.48634
2.34                   0.9979897        67.32193
2.344                   1.000998        66.03327
2.348                   1.001417        64.66643
2.352                  0.9988766        63.27989