! TOUCHSTONE file generated by CST MICROWAVE STUDIO
! Date and time: Tue Jun  7 21:56:58 2022
! Project name: AppElm_antenne_patch_FR4.cst
! Parameters = {L=45; W=58.5; e=0.035; h=1.6; lambda=0.190476; ls=90; w0=1.6; w1=0.533; ws=120; y0=20; y1=23.81}
! Header version: 2018
! Port assignment regex: !\s*Touchstone port\s*([0-9]+)\s*=\s*(CST MWS port|CST DS port)\s*([0-9]+|Zmin|Zmax)\s*\(\"(.*)\"\)(\s*mode\s*([0-9]+))?.*
! Touchstone port assignment:
! Touchstone port 1 = CST MWS port 1 ("")
# GHz S MA R 50
0                      0.9895242              -0
0.004                  0.9901564       -9.932515
0.008                  0.9919655       -19.77772
0.012                  0.9947014       -29.45257
0.016                  0.9979908       -38.88183
0.02                    1.001392       -48.00052
0.024                   1.004461       -56.75511
0.028                   1.006809        -65.1037
0.032                   1.008157       -73.01552
0.036                   1.008367       -80.47035
0.04                    1.007459       -87.45788
0.044                   1.005603       -93.97759
0.048                   1.003093       -100.0386
0.052                   1.000303       -105.6596
0.056                  0.9976361       -110.8687
0.06                   0.9954624        -115.702
0.064                  0.9940683       -120.2019
0.068                   0.993615       -124.4142
0.072                   0.994118       -128.3846
0.076                  0.9954495        -132.155
0.08                   0.9973652       -135.7606
0.084                  0.9995457       -139.2278
0.088                   1.001649       -142.5736
0.092                   1.003362       -145.8059
0.096                   1.004448       -148.9252
0.1                     1.004776       -151.9272
0.104                   1.004335       -154.8051
0.108                   1.003233       -157.5525
0.112                   1.001675       -160.1659
0.116                  0.9999257       -162.6464
0.12                   0.9982723       -165.0009
0.124                  0.9969743       -167.2416
0.128                  0.9962256       -169.3859
0.132                  0.9961238       -171.4534
0.136                  0.9966586       -173.4644
0.14                   0.9977173       -175.4367
0.144                  0.9991066        -177.384
0.148                   1.000588        -179.314
0.152                   1.001917        178.7714
0.156                   1.002883        176.8761
0.16                    1.003344        175.0079
0.164                   1.003243        173.1772
0.168                   1.002615        171.3945
0.172                   1.001581        169.6684
0.176                   1.000324        168.0041
0.18                   0.9990592        166.4022
0.184                  0.9979965        164.8584
0.188                  0.9973069        163.3638
0.192                  0.9970947        161.9065
0.196                  0.9973817        160.4734
0.2                    0.9981052         159.052
0.204                  0.9991313        157.6324
0.208                   1.000279        156.2089
0.212                   1.001352        154.7804
0.216                   1.002172        153.3504
0.22                    1.002608        151.9258
0.224                   1.002595         150.516
0.228                   1.002146        149.1309
0.232                   1.001345        147.7791
0.236                   1.000335        146.4665
0.24                     0.99929        145.1953
0.244                   0.998388        143.9635
0.248                  0.9977795        142.7649
0.252                  0.9975621        141.5906
0.256                  0.9977656        140.4303
0.26                   0.9983467        139.2737
0.264                  0.9991989        138.1126
0.268                   1.000171        136.9423
0.272                   1.001095        135.7615
0.276                   1.001813        134.5734
0.28                    1.002207        133.3841
0.284                   1.002214         132.202
0.288                   1.001837        131.0361
0.292                   1.001148        129.8944
0.296                   1.000267        128.7828
0.3                    0.9993493        127.7036
0.304                  0.9985517        126.6554
0.308                  0.9980107        125.6334
0.312                  0.9978165        124.6299
0.316                  0.9979988        123.6357
0.32                   0.9985211         122.642
0.324                  0.9992894        121.6413
0.328                   1.000168        120.6293
0.332                   1.001003        119.6051
0.336                   1.001651        118.5716
0.34                    1.002003        117.5345
0.344                      1.002        116.5016
0.348                   1.001646        115.4814
0.352                   1.001005        114.4814
0.356                    1.00019        113.5069
0.36                   0.9993444        112.5604
0.364                  0.9986147        111.6407
0.368                  0.9981276        110.7431
0.372                  0.9979666        109.8606
0.376                  0.9981576        108.9846
0.38                   0.9986652        108.1069
0.384                  0.9993984        107.2206
0.388                   1.000228        106.3219
0.392                   1.001009        105.4101
0.396                   1.001606         104.488
0.4                     1.001915        103.5614
0.404                   1.001885        102.6378
0.408                   1.001522        101.7253
0.412                    1.00089        100.8311
0.416                   1.000101        99.96038
0.42                   0.9992939        99.11515
0.424                  0.9986093        98.29407
0.428                  0.9981675        97.49256
0.432                  0.9980454        96.70359
0.436                  0.9982639        95.91892
0.44                   0.9987837         95.1306
0.444                  0.9995123        94.33222
0.448                   1.000321        93.52024
0.452                   1.001068        92.69441
0.456                   1.001622         91.8578
0.46                    1.001886         91.0163
0.464                   1.001814        90.17747
0.468                   1.001419        89.34929
0.472                    1.00077        88.53877
0.476                  0.9999811        87.75069
0.48                   0.9991905        86.98676
0.484                  0.9985377        86.24529
0.488                  0.9981379        85.52141
0.492                  0.9980622        84.80793
0.496                  0.9983238        84.09663
0.5                    0.9988765        83.37965
0.504                  0.9996223        82.65098
0.508                   1.000429        81.90745
0.512                   1.001155        81.14924
0.516                    1.00167        80.37992
0.52                    1.001885        79.60567
0.524                   1.001759        78.83434
0.528                   1.001315        78.07389
0.532                   1.000629        77.33119
0.536                  0.9998218        76.61069
0.54                   0.9990353        75.91366
0.544                  0.9984088        75.23785
0.548                  0.9980541        74.57796
0.552                  0.9980349        73.92642
0.556                  0.9983555         73.2748
0.56                   0.9989596        72.61533
0.564                  0.9997405        71.94227
0.568                    1.00056         71.2529
0.572                   1.001272        70.54803
0.576                    1.00175        69.83181
0.58                    1.001908        69.11098
0.584                   1.001717        68.39367
0.588                   1.001208        67.68806
0.592                    1.00047        67.00086
0.596                  0.9996326        66.33617
0.6                    0.9988435        65.69465
0.604                  0.9982435        65.07343
0.608                  0.9979407        64.46651
0.612                  0.9979906        63.86579
0.616                  0.9983862        63.26256
0.62                   0.9990584        62.64903
0.624                  0.9998884        62.01977
0.628                   1.000729        61.37262
0.632                    1.00143        60.70913
0.636                   1.001867         60.0342
0.64                    1.001959        59.35525
0.644                   1.001688        58.68095
0.648                   1.001099        58.01961
0.652                   1.000295        57.37785
0.656                  0.9994177        56.75929
0.66                    0.998622        56.16394
0.664                  0.9980516        55.58805
0.668                  0.9978098        55.02478
0.672                  0.9979426        54.46539
0.676                  0.9984287        53.90075
0.68                   0.9991832        53.32309
0.684                   1.000073        52.72732
0.688                   1.000939        52.11199
0.692                   1.001628         51.4795
0.696                   1.002013        50.83571
0.7                     1.002025        50.18887
0.704                   1.001657        49.54822
0.708                   1.000972        48.92231
0.712                   1.000088        48.31759
0.716                  0.9991622        47.73712
0.72                   0.9983591        47.18006
0.724                  0.9978241        46.64162
0.728                  0.9976556        46.11398
0.732                  0.9978869        45.58756
0.736                  0.9984797        45.05284
0.74                   0.9993306        44.50203
0.744                   1.000289         43.9305
0.748                   1.001182        43.33764
0.752                   1.001851        42.72694
0.756                   1.002173        42.10534
0.76                    1.002087        41.48207
0.764                   1.001603        40.86701
0.768                   1.000804        40.26899
0.772                  0.9998286        39.69418
0.776                  0.9988492        39.14497
0.78                   0.9980416        38.61944
0.784                  0.9975527        38.11161
0.788                  0.9974737        37.61244
0.792                   0.997823        37.11146
0.796                  0.9985415        36.59867
0.8                    0.9995032        36.06635
0.804                   1.000537        35.51047
0.808                   1.001458        34.93144
0.812                   1.002099          34.334
0.816                   1.002342        33.72642
0.82                    1.002138        33.11903
0.824                   1.001518        32.52243
0.828                   1.000587        31.94567
0.832                  0.9995085        31.39457
0.836                  0.9984733        30.87064
0.84                   0.9976679        30.37068
0.844                  0.9972404        29.88725
0.848                  0.9972723        29.40997
0.852                   0.997763        28.92732
0.856                  0.9986289        28.42883
0.86                   0.9997175        27.90693
0.864                   1.000835        27.35836
0.868                    1.00178         26.7848
0.872                   1.002381        26.19249
0.876                   1.002525        25.59119
0.88                    1.002179        24.99249
0.884                   1.001399         24.4078
0.888                   1.000318         23.8463
0.892                  0.9991247        23.31333
0.896                  0.9980323         22.8093
0.9                    0.9972392        22.32948
0.904                  0.9968924        21.86471
0.908                  0.9970608        21.40301
0.912                  0.9977202        20.93177
0.916                  0.9987576        20.44001
0.92                     0.99999        19.92047
0.924                   1.001197        19.37089
0.928                   1.002161        18.79444
0.932                   1.002705        18.19916
0.936                   1.002724        17.59656
0.94                    1.002207        16.99963
0.944                   1.001238         16.4206
0.948                  0.9999822        15.86879
0.952                  0.9986611        15.34887
0.956                   0.997511        14.85985
0.96                   0.9967422        14.39513
0.964                  0.9964996        13.94355
0.968                  0.9968348        13.49131
0.972                  0.9976952        13.02453
0.976                  0.9989318         12.5318
0.98                    1.000326        12.00631
0.984                   1.001629        11.44706
0.988                   1.002602        10.85907
0.992                   1.003067        10.25249
0.996                   1.002929        9.640853
1                       1.002203        9.038746
1.004                   1.001008        8.459314
1.008                  0.9995494        7.911897
1.012                  0.9980839        7.400254
1.016                  0.9968752        6.921701
1.02                   0.9961463        6.467374
1.024                   0.996037        6.023687
1.028                  0.9965769        5.574743
1.032                  0.9976779        5.105263
1.036                  0.9991487        4.603429
1.04                    1.000728        4.063071
1.044                   1.002133        3.484796
1.048                   1.003105        2.875871
1.052                   1.003462        2.248968
1.056                   1.003126        1.619996
1.06                    1.002144        1.005399
1.064                   1.000678       0.4193101
1.068                   0.998979      -0.1289948
1.072                  0.9973481      -0.6369278
1.076                    0.99608       -1.109316
1.08                   0.9954108       -1.557793
1.084                  0.9954726       -1.998859
1.088                  0.9962666       -2.450912
1.092                   0.997661       -2.930828
1.096                  0.9994124       -3.450807
1.1                     1.001209       -4.016117
1.104                   1.002726       -4.624137
1.108                   1.003685       -5.264837
1.112                   1.003899       -5.922502
1.116                   1.003314       -6.578309
1.12                    1.002014        -7.21368
1.124                   1.000214       -7.813316
1.128                  0.9982249       -8.368104
1.132                  0.9963987       -8.876941
1.136                  0.9950679       -9.347362
1.14                   0.9944834       -9.794464
1.144                  0.9947662       -10.23835
1.148                  0.9958814       -10.70047
1.152                  0.9976417       -11.19961
1.156                  0.9997391       -11.74835
1.16                    1.001799       -12.35075
1.164                   1.003448       -13.00165
1.168                   1.004379       -13.68754
1.172                   1.004405       -14.38891
1.176                   1.003498       -15.08343
1.18                    1.001792       -15.74975
1.184                  0.9995708       -16.37115
1.188                   0.997216       -16.93874
1.192                  0.9951465       -17.45335
1.196                   0.993742       -17.92597
1.2                    0.9932722       -18.37613
1.204                  0.9938431       -18.82858
1.208                  0.9953733       -19.30867
1.212                  0.9976041       -19.83758
1.216                   1.000144       -20.42836
1.22                    1.002539       -21.08351
1.224                   1.004352       -21.79457
1.228                   1.005238        -22.5436
1.232                   1.005011       -23.30619
1.236                   1.003675       -24.05541
1.24                    1.001431       -24.76631
1.244                  0.9986473       -25.42022
1.248                  0.9958031        -26.0084
1.252                  0.9934051       -26.53416
1.256                  0.9918973       -27.01306
1.26                    0.991576       -27.47058
1.264                  0.9925294        -27.9377
1.268                  0.9946142       -28.44514
1.272                  0.9974767        -29.0174
1.276                   1.000614       -29.66825
1.28                    1.003461       -30.39815
1.284                   1.005494       -31.19434
1.288                   1.006317       -32.03295
1.292                   1.005736       -32.88292
1.296                   1.003798       -33.71096
1.3                     1.000792       -34.48693
1.304                  0.9972038       -35.18916
1.308                  0.9936477       -35.80873
1.312                  0.9907577       -36.35216
1.316                  0.9890738       -36.84129
1.32                   0.9889368       -37.31009
1.324                  0.9904151       -37.79869
1.328                  0.9932817       -38.34578
1.332                  0.9970488       -38.98107
1.336                   1.001051       -39.71971
1.34                    1.004564       -40.55964
1.344                   1.006927       -41.48216
1.348                   1.007661       -42.45504
1.352                   1.006553       -43.43756
1.356                   1.003701       -44.38678
1.36                   0.9995118       -45.26431
1.364                  0.9946483       -46.04308
1.368                  0.9899297       -46.71298
1.372                  0.9861944       -47.28454
1.376                  0.9841461       -47.78886
1.38                   0.9842123       -48.27331
1.384                  0.9864478       -48.79306
1.388                  0.9905069       -49.40039
1.392                  0.9956953       -50.13436
1.396                   1.001089       -51.01357
1.4                     1.005693       -52.03307
1.404                   1.008614       -53.16565
1.408                    1.00921       -54.36627
1.412                   1.007204       -55.57876
1.416                   1.002747       -56.74378
1.42                   0.9964183       -57.80772
1.424                  0.9891627        -58.7319
1.428                  0.9821578       -59.50138
1.432                   0.976624       -60.13113
1.436                  0.9735992       -60.66752
1.44                   0.9737222       -61.18258
1.444                  0.9770752       -61.76136
1.448                  0.9831335       -62.48497
1.452                  0.9908382       -63.41424
1.456                  0.9987728       -64.57867
1.46                    1.005401       -65.97231
1.464                   1.009318       -67.55615
1.468                   1.009473       -69.26455
1.472                   1.005344       -71.01389
1.476                  0.9970498       -72.71256
1.48                   0.9853907        -74.2725
1.484                  0.9717994       -75.62315
1.488                  0.9581904       -76.72779
1.492                  0.9466884       -77.60006
1.496                  0.9392482       -78.31511
1.5                    0.9372194       -79.00787
1.504                  0.9409667       -79.85317
1.508                  0.9496699       -81.03176
1.512                  0.9613719        -82.6948
1.516                  0.9732487       -84.94011
1.52                   0.9819979       -87.80627
1.524                  0.9842329       -91.28057
1.528                  0.9768107        -95.3128
1.532                  0.9570707       -99.82822
1.536                  0.9229905       -104.7361
1.54                   0.8732772       -109.9321
1.544                  0.8074135       -115.2935
1.548                  0.7256742       -120.6631
1.552                  0.6291348       -125.8096
1.556                  0.5197155       -130.3305
1.56                   0.4004031       -133.3646
1.564                  0.2763108       -132.5397
1.568                  0.1610981       -118.8334
1.572                  0.1178186       -67.76595
1.576                  0.2031702       -32.78597
1.58                   0.3248793       -26.23413
1.584                  0.4479436        -27.4481
1.588                  0.5637741       -31.27831
1.592                  0.6683215       -36.18303
1.596                  0.7590391       -41.53885
1.6                    0.8343184       -47.02804
1.604                   0.893371       -52.45427
1.608                  0.9362109       -57.67486
1.612                  0.9636512       -62.57284
1.616                  0.9772849       -67.04577
1.62                   0.9794297       -71.00403
1.624                  0.9730214       -74.37592
1.628                  0.9614308       -77.11913
1.632                  0.9481878       -79.23634
1.636                  0.9366054       -80.78984
1.64                   0.9293481       -81.90659
1.644                  0.9280372       -82.76526
1.648                  0.9330284        -83.5639
1.652                  0.9434549       -84.47888
1.656                  0.9575291       -85.63184
1.66                    0.972991       -87.07599
1.664                  0.9875644        -88.8011
1.668                  0.9993222       -90.74945
1.672                   1.006926       -92.83407
1.676                   1.009745       -94.95518
1.68                    1.007875       -97.01334
1.684                   1.002079       -98.92046
1.688                  0.9936531         -100.61
1.692                  0.9842346       -102.0458
1.696                  0.9755512       -103.2295
1.7                    0.9691454       -104.2029
1.704                  0.9661137       -105.0418
1.708                  0.9669203       -105.8432
1.712                  0.9713346       -106.7049
1.716                  0.9785098       -107.7063
1.72                   0.9871783       -108.8951
1.724                  0.9959032       -110.2819
1.728                   1.003331        -111.844
1.732                   1.008398       -113.5328
1.736                   1.010465       -115.2841
1.74                    1.009387       -117.0278
1.744                   1.005509       -118.6978
1.748                  0.9995994       -120.2402
1.752                  0.9927269       -121.6214
1.756                  0.9860932       -122.8332
1.76                   0.9808367        -123.896
1.764                    0.97784       -124.8558
1.768                  0.9775783       -125.7767
1.772                  0.9800404       -126.7278
1.776                  0.9847478       -127.7707
1.78                   0.9908599       -128.9476
1.784                  0.9973384       -130.2758
1.788                   1.003133       -131.7466
1.792                   1.007351       -133.3294
1.796                   1.009389       -134.9784
1.8                     1.009005         -136.64
1.804                   1.006349       -138.2604
1.808                   1.001922       -139.7935
1.812                  0.9965036       -141.2074
1.816                  0.9910201       -142.4892
1.82                   0.9863999       -143.6485
1.824                  0.9834158       -144.7158
1.828                  0.9825527       -145.7379
1.832                  0.9839236       -146.7692
1.836                  0.9872585       -147.8615
1.84                   0.9919618       -149.0543
1.844                  0.9972283       -150.3681
1.848                   1.002188       -151.8031
1.852                   1.006052       -153.3397
1.856                    1.00823       -154.9434
1.86                     1.00842       -156.5711
1.864                   1.006639       -158.1767
1.868                   1.003218       -159.7187
1.872                  0.9987478       -161.1656
1.876                  0.9939834       -162.5012
1.88                   0.9897246       -163.7274
1.884                  0.9866822       -164.8646
1.888                  0.9853569       -165.9489
1.892                   0.985953       -167.0251
1.896                  0.9883447       -168.1388
1.9                    0.9921049       -169.3281
1.904                  0.9965878       -170.6166
1.908                   1.001045       -172.0104
1.912                    1.00475       -173.4982
1.916                   1.007121       -175.0537
1.92                    1.007799       -176.6408
1.924                   1.006703       -178.2193
1.928                   1.004037       -179.7503
1.932                   1.000254        178.7978
1.936                  0.9959875        177.4443
1.94                   0.9919495        176.1929
1.944                  0.9888128        175.0306
1.948                   0.987098        173.9294
1.952                  0.9870825        172.8512
1.956                  0.9887523        171.7543
1.96                   0.9918089        170.6017
1.964                   0.995725        169.3669
1.968                  0.9998406         168.039
1.972                   1.003477        166.6229
1.976                   1.006046        165.1382
1.98                    1.007144        163.6156
1.984                   1.006607        162.0913
1.988                   1.004537        160.6022
1.992                   1.001282        159.1803
1.996                  0.9973821        157.8475
2                      0.9934841        156.6122
2.004                  0.9902374        155.4674
2.008                  0.9881829        154.3911
2.012                  0.9876607        153.3502
2.016                  0.9887485        152.3062
2.02                   0.9912501         151.222
2.024                  0.9947326        150.0692
2.028                  0.9986043        148.8324
2.032                   1.002218        147.5111
2.036                    1.00498        146.1198
2.04                    1.006441        144.6844
2.044                   1.006369        143.2383
2.048                    1.00478        141.8171
2.052                   1.001935        140.4532
2.056                  0.9983016        139.1712
2.06                   0.9944788        137.9833
2.064                  0.9911011        136.8875
2.068                  0.9887332        135.8667
2.072                  0.9877707        134.8916
2.076                  0.9883706         133.926
2.08                    0.990423        132.9326
2.084                  0.9935712        131.8807
2.088                  0.9972766        130.7509
2.092                   1.000913        129.5382
2.096                   1.003873        128.2525
2.1                     1.005665         126.916
2.104                   1.005992        125.5599
2.108                   1.004795         124.219
2.112                   1.002261        122.9268
2.116                  0.9987995        121.7104
2.12                   0.9949742        120.5857
2.124                  0.9914166        119.5551
2.128                  0.9887198        118.6056
2.132                  0.9873369        117.7111
2.136                  0.9874999        116.8367
2.14                   0.9891762        115.9445
2.144                  0.9920744        115.0009
2.148                   0.995696        113.9827
2.152                  0.9994237        112.8804
2.156                   1.002626        111.6997
2.16                    1.004761        110.4598
2.164                   1.005464        109.1903
2.168                     1.0046        107.9259
2.172                    1.00229         106.702
2.176                  0.9988924        105.5486
2.18                    0.994949        104.4859
2.184                  0.9911015        103.5205
2.188                  0.9879869        102.6437
2.192                  0.9861281        101.8318
2.196                    0.98584        101.0505
2.2                    0.9871712        100.2601
2.204                  0.9898917        99.42339
2.208                  0.9935337         98.5121
2.212                  0.9974722         97.5117
2.216                   1.001032        96.42346
2.22                    1.003601        95.26377
2.224                   1.004723        94.06109
2.228                   1.004178        92.85134
2.232                   1.002008        91.67275
2.236                  0.9985241           90.56
2.24                   0.9942569        89.53887
2.244                  0.9898802        88.62166
2.248                  0.9861044        87.80422
2.252                  0.9835567        87.06567
2.256                  0.9826694        86.37106
2.26                    0.983598        85.67729
2.264                  0.9861869        84.94079
2.268                  0.9899931        84.12556
2.272                  0.9943602        83.20944
2.276                  0.9985295        82.18768
2.28                    1.001765        81.07298
2.284                   1.003471        79.89329
2.288                   1.003283        78.68723
2.292                   1.001135        77.49856
2.296                  0.9972666        76.36997
2.3                    0.9922067        75.33672
2.304                  0.9866978        74.42064
2.308                  0.9815887        73.62532
2.312                  0.9776986        72.93375
2.316                   0.975673        72.30939
2.32                   0.9758601        71.70146
2.324                  0.9782349        71.05356
2.328                  0.9823888        70.31399
2.332                  0.9875897        69.44514
2.336                  0.9928994        68.42971
2.34                   0.9973221        67.27305
2.344                  0.9999593         66.0018
2.348                   1.000146        64.65958
2.352                  0.9975577        63.30137