! TOUCHSTONE file generated by CST MICROWAVE STUDIO
! Date and time: Tue Jun  7 21:57:05 2022
! Project name: AppElm_antenne_patch_FR4.cst
! Parameters = {L=45; W=58.5; e=0.035; h=1.6; lambda=0.190476; ls=132; w0=1.6; w1=0.533; ws=120; y0=20; y1=23.81}
! Header version: 2018
! Port assignment regex: !\s*Touchstone port\s*([0-9]+)\s*=\s*(CST MWS port|CST DS port)\s*([0-9]+|Zmin|Zmax)\s*\(\"(.*)\"\)(\s*mode\s*([0-9]+))?.*
! Touchstone port assignment:
! Touchstone port 1 = CST MWS port 1 ("")
# GHz S MA R 50
0                      0.9893339              -0
0.004                  0.9899729       -9.931455
0.008                  0.9918014       -19.77575
0.012                  0.9945686       -29.44996
0.016                  0.9978992         -38.879
0.02                    1.001349         -47.998
0.024                    1.00447       -56.75352
0.028                   1.006869       -65.10371
0.032                   1.008262       -73.01779
0.036                   1.008507       -80.47544
0.04                    1.007621       -87.46626
0.044                   1.005768       -93.98942
0.048                   1.003241       -100.0538
0.052                   1.000417       -105.6776
0.056                  0.9976989       -110.8887
0.06                   0.9954644       -115.7228
0.064                  0.9940069       -120.2222
0.068                  0.9934954       -124.4326
0.072                  0.9939541       -128.3999
0.076                  0.9952619       -132.1665
0.08                   0.9971784        -135.768
0.084                  0.9993843       -139.2314
0.088                   1.001535       -142.5741
0.092                   1.003311       -145.8046
0.096                   1.004466       -148.9235
0.1                      1.00486       -151.9266
0.104                   1.004472       -154.8069
0.108                   1.003402       -157.5576
0.112                   1.001849       -160.1748
0.116                   1.000078        -162.659
0.12                   0.9983786       -165.0163
0.124                  0.9970172       -167.2587
0.128                  0.9961977       -169.4029
0.132                  0.9960292       -171.4689
0.136                  0.9965124       -173.4768
0.14                   0.9975433       -175.4452
0.144                  0.9989334       -177.3882
0.148                   1.000444       -179.3143
0.152                   1.001826         178.774
0.156                   1.002862        176.8802
0.16                    1.003396        175.0119
0.164                    1.00336        173.1794
0.168                    1.00278        171.3935
0.172                   1.001767        169.6635
0.176                   1.000501        167.9951
0.18                   0.9991987        166.3895
0.184                  0.9980754        164.8432
0.188                  0.9973122        163.3478
0.192                   0.997026        161.8914
0.196                   0.997251        160.4609
0.2                    0.9979353        159.0432
0.204                  0.9989515         157.628
0.208                    1.00012        156.2088
0.212                   1.001242        154.7836
0.216                   1.002131        153.3555
0.22                    1.002643        151.9312
0.224                   1.002701        150.5199
0.228                   1.002305        149.1317
0.232                   1.001531        147.7758
0.236                   1.000516        146.4589
0.24                   0.9994353        145.1837
0.244                  0.9984723        143.9491
0.248                  0.9977878        142.7494
0.252                  0.9974925        141.5759
0.256                  0.9976295         140.418
0.26                   0.9981674        139.2653
0.264                  0.9990067        138.1088
0.268                  0.9999992        136.9429
0.272                   1.000973        135.7657
0.276                   1.001762        134.5797
0.28                    1.002235        133.3907
0.284                   1.002316         132.207
0.288                   1.001996        131.0379
0.292                   1.001336         129.892
0.296                    1.00045        128.7758
0.3                    0.9994947        127.6924
0.304                  0.9986329        126.6414
0.308                  0.9980126        125.6183
0.312                  0.9977371        124.6156
0.316                  0.9978507        123.6241
0.32                   0.9983294        122.6344
0.324                  0.9990866        121.6385
0.328                  0.9999884        120.6312
0.332                   1.000878        119.6107
0.336                   1.001602        118.5792
0.34                    1.002038        117.5422
0.344                   1.002112        116.5075
0.348                   1.001815        115.4837
0.352                   1.001201        114.4791
0.356                   1.000378        113.4999
0.36                   0.9994901        112.5492
0.364                   0.998691        111.6265
0.368                  0.9981194         110.728
0.372                  0.9978739        109.8466
0.376                  0.9979957        108.9736
0.38                   0.9984614        108.1003
0.384                  0.9991881        107.2191
0.388                   1.000048        106.3251
0.392                    1.00089        105.4169
0.396                   1.001569        104.4967
0.4                     1.001967        103.5698
0.404                   1.002016        102.6439
0.408                   1.001709        101.7274
0.412                     1.0011        100.8283
0.416                   1.000297        99.95248
0.42                   0.9994388        99.10294
0.424                  0.9986767        98.27911
0.428                  0.9981443        97.47692
0.432                  0.9979344        96.68951
0.436                  0.9980838        95.90835
0.44                   0.9985656        95.12485
0.444                  0.9992945        94.33178
0.448                   1.000142        93.52464
0.452                    1.00096        92.70231
0.456                   1.001603        91.86723
0.46                    1.001961        91.02498
0.464                   1.001969        90.18327
0.468                   1.001627        89.35055
0.472                   1.000993        88.53462
0.476                   1.000179        87.74121
0.48                   0.9993265        86.97296
0.484                  0.9985863          86.229
0.488                  0.9980887        85.50491
0.492                  0.9979219        84.79358
0.496                  0.9981159        84.08641
0.5                    0.9986368        83.37479
0.504                  0.9993922        82.65177
0.508                   1.000249        81.91313
0.512                   1.001056         81.1582
0.516                   1.001669        80.38994
0.52                    1.001981        79.61433
0.524                   1.001935        78.83942
0.528                   1.001538         78.0738
0.532                   1.000857        77.32524
0.536                   1.000012         76.5992
0.54                   0.9991509        75.89797
0.544                  0.9984258        75.22012
0.548                  0.9979659        74.56068
0.552                  0.9978537        73.91204
0.556                  0.9981105        73.26529
0.56                   0.9986915         72.6118
0.564                  0.9994946        71.94471
0.568                   1.000377        71.26023
0.572                   1.001183        70.55831
0.576                   1.001768        69.84252
0.58                    1.002028        69.11953
0.584                   1.001914        68.39782
0.588                   1.001444        67.68635
0.592                   1.000698        66.99283
0.596                  0.9998075        66.32248
0.6                    0.9989289        65.67703
0.604                  0.9982183        65.05435
0.608                  0.9978035        64.44872
0.612                  0.9977604        63.85183
0.616                  0.9980988        63.25432
0.62                   0.9987599        62.64738
0.624                  0.9996278        62.02435
0.628                   1.000548        61.38197
0.632                   1.001357        60.72091
0.636                    1.00191        60.04562
0.64                    1.002106        59.36357
0.644                   1.001907        58.68393
0.648                   1.001345        58.01596
0.652                   1.000518        57.36745
0.656                  0.9995696        56.74322
0.66                   0.9986677        56.14435
0.664                  0.9979742        55.56776
0.668                  0.9976148        55.00679
0.672                  0.9976566         54.4523
0.676                  0.9980949        53.89432
0.68                   0.9988541        53.32384
0.684                  0.9998001         52.7345
0.688                   1.000765        52.12365
0.692                   1.001575         51.4929
0.696                   1.002085        50.84775
0.7                     1.002201        50.19669
0.704                   1.001898        49.54964
0.708                   1.001225        48.91633
0.712                   1.000298        48.30449
0.716                  0.9992803         47.7185
0.72                   0.9983527        47.15852
0.724                  0.9976822        46.62039
0.728                  0.9973919        46.09625
0.732                  0.9975368        45.57596
0.736                  0.9980951        45.04887
0.74                   0.9989695        44.50583
0.744                   1.000005         43.9408
0.748                   1.001018        43.35199
0.752                   1.001824        42.74211
0.756                   1.002278        42.11796
0.76                    1.002293         41.4892
0.764                   1.001862        40.86665
0.768                   1.001056        40.26046
0.772                   1.000014        39.67829
0.776                    0.99892        39.12386
0.78                   0.9979686        38.59627
0.784                  0.9973324           38.09
0.788                  0.9971298        37.59578
0.792                  0.9974012        37.10229
0.796                  0.9981025        36.59818
0.8                    0.9991113        36.07416
0.804                   1.000248        35.52471
0.808                    1.00131        34.94905
0.812                   1.002104        34.35131
0.816                   1.002484        33.73979
0.82                    1.002376        33.12548
0.824                   1.001793        32.52022
0.828                   1.000833        31.93458
0.832                  0.9996613        31.37601
0.836                  0.9984854        30.84741
0.84                   0.9975165        30.34654
0.844                  0.9969317         29.8662
0.848                  0.9968414        29.39552
0.852                  0.9972677        28.92186
0.856                  0.9981392         28.4331
0.86                   0.9993031        27.91993
0.864                   1.000553        27.37752
0.868                   1.001663         26.8064
0.872                   1.002432        26.21237
0.876                   1.002717        25.60548
0.88                    1.002459        24.99827
0.884                   1.001696        24.40366
0.888                   1.000557         23.8326
0.892                  0.9992404        23.29222
0.896                  0.9979798        22.78434
0.9                    0.9970032        22.30502
0.904                  0.9964913        21.84515
0.908                  0.9965432        21.39194
0.912                   0.997157        20.93126
0.916                  0.9982286        20.45026
0.92                   0.9995699         19.9397
0.924                   1.000942        19.39571
0.928                   1.002097        18.82043
0.932                   1.002823        18.22168
0.936                   1.002984        17.61152
0.94                    1.002541        17.00428
0.944                   1.001563          16.414
0.948                   1.000217        15.85204
0.952                   0.998737        15.32494
0.956                   0.997388        14.83315
0.96                   0.9964157         14.3707
0.964                  0.9960022        13.92613
0.968                   0.996231        13.48447
0.972                  0.9970702        13.02995
0.976                   0.998376        12.54894
0.98                   0.9999184        12.03248
0.984                   1.001421        11.47794
0.988                   1.002613        10.88947
0.992                   1.003273        10.27726
0.996                   1.003273        9.655793
1                       1.002601        9.041365
1.004                   1.001365        8.449297
1.008                  0.9997746        7.891223
1.012                  0.9981092        7.372924
1.016                  0.9966676        6.893069
1.02                   0.9957142        6.443205
1.024                  0.9954306        6.009073
1.028                  0.9958794        5.573122
1.032                  0.9969906        5.117741
1.036                  0.9985724        4.628547
1.04                    1.000345        4.097068
1.044                   1.001991        3.522288
1.048                   1.003209        2.910814
1.052                   1.003773        2.275719
1.056                   1.003567        1.634302
1.06                    1.002611        1.005163
1.064                   1.001062       0.4050185
1.068                  0.9991822      -0.1542695
1.072                  0.9973035      -0.6679821
1.076                  0.9957641       -1.139689
1.08                   0.9948495       -1.580933
1.084                  0.9947373       -2.009364
1.088                  0.9954624       -2.445589
1.092                  0.9969077        -2.90934
1.096                   0.998822       -3.415758
1.1                     1.000866       -3.972577
1.104                   1.002672       -4.578731
1.108                   1.003907       -5.224539
1.112                   1.004338       -5.893487
1.116                   1.003869       -6.564813
1.12                     1.00256        -7.21726
1.124                   1.000626       -7.832468
1.128                  0.9983965        -8.39837
1.132                  0.9962663       -8.911687
1.136                  0.9946213       -9.378829
1.14                   0.9937702       -9.815211
1.144                  0.9938843       -10.24269
1.148                  0.9949624       -10.68562
1.152                  0.9968266       -11.16625
1.156                  0.9991526       -11.70053
1.16                    1.001527       -12.29514
1.164                   1.003521       -12.94635
1.168                   1.004764       -13.64066
1.172                   1.005017       -14.35715
1.176                   1.004205       -15.07095
1.18                    1.002445       -15.75735
1.184                   1.000024       -16.39604
1.188                  0.9973558       -16.97478
1.192                  0.9949138       -17.49208
1.196                  0.9931442       -17.95804
1.2                    0.9923847       -18.39305
1.204                  0.9927975       -18.82437
1.208                  0.9943338       -19.28112
1.212                  0.9967381       -19.78874
1.216                  0.9995911       -20.36413
1.22                    1.002385       -21.01259
1.224                   1.004612        -21.7269
1.228                   1.005855       -22.48863
1.232                   1.005863        -23.2713
1.236                   1.004596       -24.04461
1.24                    1.002235       -24.77943
1.244                  0.9991665       -25.45274
1.248                  0.9959134         -26.052
1.252                  0.9930537       -26.57801
1.256                  0.9911152       -27.04569
1.26                   0.9904757       -27.48211
1.264                  0.9912866       -27.92183
1.268                  0.9934366       -28.40045
1.272                  0.9965661       -28.94776
1.276                   1.000128       -29.58204
1.28                    1.003487       -30.30676
1.284                   1.006028       -31.11011
1.288                   1.007267       -31.96715
1.292                   1.006934       -32.84383
1.296                   1.005028       -33.70241
1.3                     1.001822       -34.50752
1.304                  0.9978311       -35.23205
1.308                  0.9937336       -35.86259
1.312                  0.9902574       -36.40278
1.316                  0.9880506       -36.87417
1.32                   0.9875548        -37.3133
1.324                  0.9889129       -37.76538
1.328                  0.9919298       -38.27562
1.332                  0.9960994       -38.88048
1.336                   1.000692       -39.60057
1.34                    1.004883       -40.43716
1.344                   1.007896       -41.37221
1.348                   1.009139       -42.37156
1.352                   1.008306       -43.39031
1.356                   1.005439       -44.37961
1.36                    1.000935       -45.29417
1.364                  0.9954982       -46.09992
1.368                  0.9900403       -46.78087
1.372                  0.9855288       -47.34403
1.376                  0.9828127       -47.82051
1.38                   0.9824546        -48.2616
1.384                  0.9846037       -48.72989
1.388                  0.9889488        -49.2869
1.392                  0.9947608       -49.98083
1.396                   1.001019       -50.83737
1.4                     1.006588       -51.85551
1.404                   1.010415       -53.00834
1.408                   1.011704       -54.24785
1.412                   1.010055       -55.51196
1.416                   1.005542       -56.73323
1.42                   0.9987345       -57.84843
1.424                  0.9906384         -58.809
1.428                  0.9825632       -59.59122
1.432                  0.9759191       -60.20457
1.436                  0.9719622       -60.69513
1.44                   0.9715345       -61.14099
1.444                  0.9748632       -61.63878
1.448                  0.9814744       -62.28415
1.452                  0.9902542       -63.15199
1.456                  0.9996368       -64.28236
1.46                    1.007872        -65.6748
1.464                   1.013315       -67.29057
1.468                   1.014678       -69.05972
1.472                   1.011244        -70.8906
1.476                      1.003       -72.68011
1.48                    0.990704       -74.32585
1.484                  0.9758549       -75.74065
1.488                  0.9605599        -76.8707
1.492                  0.9472587       -77.71576
1.496                  0.9383099       -78.34558
1.5                    0.9354858       -78.90252
1.504                  0.9394964       -79.58245
1.508                  0.9497022       -80.59566
1.512                  0.9641255       -82.12262
1.516                  0.9797418        -84.2832
1.52                   0.9929281       -87.12814
1.524                  0.9999239       -90.64883
1.528                  0.9972102       -94.79491
1.532                  0.9817798        -99.4911
1.536                  0.9513076       -104.6489
1.54                   0.9042474       -110.1719
1.544                  0.8398743       -115.9553
1.548                  0.7582908       -121.8762
1.552                  0.6604092       -127.7712
1.556                  0.5479325       -133.3764
1.56                   0.4233878       -138.1528
1.564                  0.2904827       -140.6137
1.568                  0.1569024       -134.2584
1.572                 0.07596513       -73.73851
1.576                  0.1723674       -23.72615
1.58                   0.3068402       -19.35394
1.584                  0.4392189       -22.29332
1.588                  0.5627286       -27.27868
1.592                  0.6738096       -33.01851
1.596                  0.7699887       -39.02456
1.6                    0.8496014       -45.04988
1.604                  0.9117736        -50.9368
1.608                  0.9564495       -56.56399
1.612                  0.9844134       -61.82513
1.616                   0.997288       -66.62096
1.62                   0.9974972       -70.85871
1.624                  0.9881729       -74.45847
1.628                  0.9729832       -77.36627
1.632                  0.9558529       -79.57304
1.636                  0.9405583       -81.13482
1.64                    0.930228       -82.18404
1.644                  0.9268534       -82.91957
1.648                  0.9309736       -83.57109
1.652                  0.9416789       -84.34883
1.656                  0.9569408       -85.40077
1.66                   0.9741411       -86.79385
1.664                  0.9906153       -88.51956
1.668                   1.004087       -90.51338
1.672                   1.012944       -92.67702
1.676                    1.01638       -94.89716
1.68                    1.014416       -97.06019
1.684                   1.007842       -99.06393
1.688                  0.9980758       -100.8285
1.692                  0.9869602       -102.3068
1.696                  0.9764855       -103.4938
1.7                    0.9684763       -104.4307
1.704                  0.9642785       -105.2009
1.708                  0.9645235       -105.9152
1.712                  0.9690304       -106.6887
1.716                  0.9768813       -107.6172
1.72                   0.9866399       -108.7598
1.724                  0.9966473       -110.1326
1.728                   1.005318       -111.7121
1.732                   1.011382       -113.4444
1.736                   1.014049       -115.2569
1.74                    1.013091       -117.0699
1.744                    1.00884       -118.8066
1.748                   1.002131       -120.4031
1.752                  0.9941596       -121.8171
1.756                   0.986307       -123.0349
1.76                    0.979911       -124.0757
1.764                  0.9760411       -124.9894
1.768                  0.9753102       -125.8485
1.772                  0.9777703       -126.7341
1.776                  0.9829183       -127.7194
1.78                   0.9898129       -128.8564
1.784                   0.997263       -130.1678
1.788                   1.004045        -131.646
1.792                   1.009101       -133.2578
1.796                   1.011694       -134.9515
1.8                     1.011503       -136.6662
1.804                   1.008648       -138.3397
1.808                    1.00367       -139.9177
1.812                  0.9974348       -141.3609
1.816                  0.9910039       -142.6515
1.82                   0.9854623       -143.7971
1.824                  0.9817362       -144.8306
1.828                  0.9804318       -145.8048
1.832                  0.9817296       -146.7829
1.836                  0.9853596        -147.826
1.84                   0.9906609       -148.9821
1.844                  0.9967145       -150.2773
1.848                   1.002511       -151.7138
1.852                   1.007119       -153.2706
1.856                   1.009832       -154.9093
1.86                    1.010261       -156.5806
1.864                   1.008392       -158.2317
1.868                   1.004571       -159.8136
1.872                   0.999454       -161.2886
1.876                  0.9939021       -162.6355
1.88                   0.9888448        -163.854
1.884                  0.9851267       -164.9657
1.888                   0.983362       -166.0107
1.892                  0.9838254       -167.0411
1.896                  0.9864073       -168.1106
1.9                    0.9906395       -169.2648
1.904                   0.995787       -170.5329
1.908                   1.000983       -171.9237
1.912                   1.005379       -173.4255
1.916                   1.008277       -175.0092
1.92                    1.009237       -176.6338
1.924                   1.008134       -178.2529
1.928                   1.005175        -179.821
1.932                   1.000861        178.6993
1.936                   0.995913        177.3322
1.94                    0.991154         176.084
1.944                  0.9873786        174.9414
1.948                  0.9852155        173.8734
1.952                  0.9850174         172.836
1.956                  0.9867986        171.7803
1.96                   0.9902358        170.6621
1.964                  0.9947314        169.4496
1.968                  0.9995231        168.1283
1.972                   1.003817        166.7027
1.976                   1.006918        165.1948
1.98                    1.008335        163.6391
1.984                   1.007857        162.0775
1.988                   1.005576        160.5528
1.992                   1.001874        159.1029
1.996                  0.9973653        157.7544
2                      0.9927974        156.5188
2.004                  0.9889327        155.3895
2.008                  0.9864184        154.3421
2.012                  0.9856735        153.3386
2.016                  0.9868137        152.3339
2.02                   0.9896313        151.2842
2.024                  0.9936363        150.1553
2.028                  0.9981451        148.9278
2.032                   1.002402        147.6006
2.036                   1.005707        146.1895
2.04                    1.007524         144.724
2.044                   1.007562        143.2424
2.048                   1.005823        141.7863
2.052                   1.002592        140.3937
2.056                  0.9983992        139.0942
2.06                   0.9939375        137.9032
2.064                  0.9899503        136.8197
2.068                  0.9871079        135.8248
2.072                  0.9858902         134.885
2.076                  0.9864999        133.9578
2.08                   0.9888258        132.9994
2.084                   0.992463        131.9728
2.088                   0.996788        130.8547
2.092                    1.00107        129.6385
2.096                   1.004593         128.335
2.1                     1.006775        126.9699
2.104                   1.007256         125.579
2.108                   1.005952        124.2029
2.112                    1.00307        122.8809
2.116                  0.9990753         121.645
2.12                   0.9946213         120.515
2.124                  0.9904473        119.4944
2.128                  0.9872552        118.5692
2.132                  0.9855877        117.7092
2.136                  0.9857301        116.8733
2.14                   0.9876564        116.0171
2.144                  0.9910329        115.1006
2.148                  0.9952797        114.0959
2.152                  0.9996735        112.9916
2.156                   1.003472        111.7941
2.16                    1.006035        110.5257
2.164                   1.006929        109.2206
2.168                   1.005988        107.9195
2.172                   1.003347        106.6637
2.176                  0.9994168        105.4886
2.18                   0.9948295        104.4185
2.184                  0.9903379        103.4619
2.188                  0.9866933        102.6088
2.192                  0.9845166        101.8321
2.196                  0.9841853         101.091
2.2                    0.9857611         100.339
2.204                  0.9889763        99.53174
2.208                  0.9932795        98.63586
2.212                   0.997935        97.63437
2.216                   1.002148        96.52894
2.22                    1.005198        95.33903
2.224                   1.006552        94.09805
2.228                    1.00595        92.84815
2.232                   1.003444        91.63405
2.236                  0.9993974        90.49644
2.24                   0.9944355        89.46565
2.244                  0.9893515        88.55634
2.248                  0.9849827        87.76376
2.252                   0.982069        87.06315
2.256                  0.9811183         86.4131
2.26                   0.9823083        85.76241
2.264                  0.9854471        85.05957
2.268                  0.9900029        84.26241
2.272                  0.9951949        83.34565
2.276                   1.000128         82.3046
2.28                    1.003941        81.15525
2.284                   1.005942        79.93106
2.288                   1.005719        78.67764
2.292                   1.003206        77.44624
2.296                  0.9986999        76.28662
2.3                     0.992832        75.23976
2.304                  0.9864833         74.3308
2.308                  0.9806559        73.56328
2.312                  0.9763097        72.91635
2.316                  0.9741933        72.34593
2.32                   0.9746954        71.79132
2.324                  0.9777584        71.18587
2.328                  0.9828721        70.46954
2.332                  0.9891531        69.59998
2.336                  0.9954897        68.55948
2.34                    1.000721        67.35696
2.344                   1.003818        66.02566
2.348                   1.004038        64.61787
2.352                   1.001041        63.19805