! TOUCHSTONE file generated by CST MICROWAVE STUDIO
! Date and time: Tue Jun  7 21:56:59 2022
! Project name: AppElm_antenne_patch_FR4.cst
! Parameters = {L=45; W=58.5; e=0.035; h=1.6; lambda=0.190476; ls=96; w0=1.6; w1=0.533; ws=120; y0=20; y1=23.81}
! Header version: 2018
! Port assignment regex: !\s*Touchstone port\s*([0-9]+)\s*=\s*(CST MWS port|CST DS port)\s*([0-9]+|Zmin|Zmax)\s*\(\"(.*)\"\)(\s*mode\s*([0-9]+))?.*
! Touchstone port assignment:
! Touchstone port 1 = CST MWS port 1 ("")
# GHz S MA R 50
0                      0.9893914              -0
0.004                  0.9900282       -9.930705
0.008                  0.9918506       -19.77423
0.012                   0.994608       -29.44765
0.016                  0.9979259       -38.87584
0.02                    1.001361       -47.99392
0.024                   1.004467       -56.74844
0.028                   1.006852       -65.09756
0.032                   1.008234       -73.01049
0.036                   1.008473       -80.46697
0.04                    1.007583       -87.45662
0.044                   1.005733       -93.97871
0.048                   1.003215       -100.0421
0.052                   1.000404       -105.6654
0.056                  0.9977031       -110.8762
0.06                   0.9954868       -115.7104
0.064                  0.9940462       -120.2104
0.068                  0.9935487       -124.4217
0.072                  0.9940151       -128.3903
0.076                  0.9953237       -132.1582
0.08                   0.9972336        -135.761
0.084                   0.999426       -139.2255
0.088                   1.001558        -142.569
0.092                   1.003313       -145.7998
0.096                   1.004448       -148.9186
0.1                     1.004825       -151.9211
0.104                   1.004427       -154.8005
0.108                   1.003354       -157.5503
0.112                   1.001807       -160.1665
0.116                   1.000049       -162.6499
0.12                   0.9983681       -165.0068
0.124                  0.9970277       -167.2493
0.128                  0.9962278       -169.3942
0.132                  0.9960744       -171.4612
0.136                  0.9965651       -173.4705
0.14                   0.9975946       -175.4403
0.144                  0.9989741       -177.3845
0.148                   1.000466       -179.3116
0.152                   1.001826        178.7763
0.156                   1.002837        176.8825
0.16                    1.003351        175.0148
0.164                   1.003301        173.1834
0.168                   1.002715        171.3988
0.172                   1.001707        169.6701
0.176                   1.000456        168.0028
0.18                   0.9991749        166.3979
0.184                  0.9980768        164.8518
0.188                  0.9973385        163.3558
0.192                   0.997072        161.8984
0.196                  0.9973082        160.4664
0.2                     0.997993        159.0472
0.204                  0.9989987        157.6305
0.208                   1.000148        156.2102
0.212                   1.001244        154.7846
0.216                   1.002106        153.3566
0.22                    1.002594         151.933
0.224                   1.002635        150.5229
0.228                   1.002234        149.1362
0.232                   1.001467        147.7819
0.236                   1.000469        146.4663
0.24                   0.9994148         145.192
0.244                  0.9984823        143.9575
0.248                   0.997827        142.7572
0.252                  0.9975548        141.5824
0.256                  0.9977044        140.4229
0.26                   0.9982421        139.2683
0.264                  0.9990684        138.1102
0.268                   1.000037         136.943
0.272                   1.000981        135.7653
0.276                   1.001738        134.5794
0.28                    1.002184        133.3913
0.284                   1.002246        132.2092
0.288                   1.001921        131.0419
0.292                   1.001269        129.8978
0.296                   1.000405        128.7831
0.3                    0.9994802        127.7006
0.304                  0.9986537        126.6497
0.308                  0.9980665        125.6258
0.312                  0.9978163        124.6216
0.316                  0.9979426        123.6281
0.32                   0.9984188        122.6363
0.324                  0.9991585        121.6384
0.328                   1.000031        120.6297
0.332                   1.000884        119.6087
0.336                   1.001571        118.5776
0.34                    1.001975        117.5419
0.344                   1.002029         116.509
0.348                   1.001728        115.4874
0.352                   1.001126        114.4849
0.356                   1.000329        113.5073
0.36                   0.9994776        112.5575
0.364                  0.9987192        111.6349
0.368                  0.9981849        110.7353
0.372                  0.9979664         109.852
0.376                  0.9980999        108.9768
0.38                   0.9985596         108.101
0.384                  0.9992632        107.2177
0.388                   1.000087        106.3223
0.392                   1.000886        105.4137
0.396                   1.001522        104.4941
0.4                     1.001885        103.5689
0.404                   1.001914        102.6453
0.408                   1.001605        101.7314
0.412                   1.001013        100.8347
0.416                   1.000243        99.96076
0.42                    0.999429        99.11213
0.424                   0.998714        98.28807
0.428                  0.9982231        97.48457
0.432                   0.998042        96.69492
0.436                  0.9982015        95.91103
0.44                   0.9986728        95.12479
0.444                   0.999372        94.32948
0.448                   1.000176        93.52097
0.452                   1.000943        92.69842
0.456                   1.001539        91.86436
0.46                     1.00186        91.02416
0.464                   1.001849        90.18525
0.468                   1.001509        89.35555
0.472                     1.0009        88.54232
0.476                   1.000128        87.75086
0.48                   0.9993285        86.98342
0.484                  0.9986425        86.23893
0.488                  0.9981909        85.51308
0.492                  0.9980535        84.79903
0.496                  0.9982547        84.08865
0.5                    0.9987589        83.37397
0.504                  0.9994768        82.64852
0.508                   1.000281        81.90857
0.512                    1.00103        81.15371
0.516                   1.001592        80.38688
0.52                    1.001866        79.61387
0.524                   1.001804        78.84224
0.528                   1.001415        78.08004
0.532                   1.000768        77.33442
0.536                  0.9999747        76.61035
0.54                   0.9991755        75.90969
0.544                  0.9985117        75.23087
0.548                  0.9981012        74.56909
0.552                  0.9980174        73.91716
0.556                  0.9982762        73.26672
0.56                   0.9988323        72.60978
0.564                  0.9995876        71.94017
0.568                   1.000408        71.25454
0.572                   1.001148        70.55305
0.576                   1.001676        69.83924
0.58                    1.001898        69.11942
0.584                   1.001772        68.40158
0.588                   1.001319        67.69393
0.592                   1.000618        67.00356
0.596                  0.9997904        66.33509
0.6                    0.9989834        65.68987
0.604                  0.9983407        65.06566
0.608                  0.9979772        64.45702
0.612                  0.9979593        63.85618
0.616                  0.9982921        63.25444
0.62                   0.9989177        62.64376
0.624                  0.9997257        62.01818
0.628                   1.000573        61.37494
0.632                   1.001308        60.71484
0.636                     1.0018         60.0422
0.64                    1.001959        59.36405
0.644                   1.001755        58.68887
0.648                   1.001222        58.02517
0.652                   1.000452        57.37992
0.656                  0.9995792        56.75738
0.66                   0.9987597        56.15823
0.664                    0.99814        55.57944
0.668                  0.9978324         55.0147
0.672                  0.9978942        54.45551
0.676                  0.9983171        53.89275
0.68                   0.9990274        53.31831
0.684                  0.9998998        52.72651
0.688                   1.000779        52.11521
0.692                   1.001508         51.4861
0.696                   1.001956        50.84442
0.7                     1.002039        50.19806
0.704                    1.00174        49.55614
0.708                   1.001109        48.92746
0.712                   1.000255         48.3189
0.716                   0.999328        47.73422
0.72                   0.9984938         47.1733
0.724                  0.9979023        46.63209
0.728                  0.9976622        46.10324
0.732                  0.9978194        45.57745
0.736                  0.9983491        45.04505
0.74                    0.999159        44.49786
0.744                   1.000106        43.93059
0.748                    1.00102         43.3419
0.752                   1.001738        42.73449
0.756                   1.002129        42.11475
0.76                    1.002119        41.49156
0.764                   1.001705        40.87478
0.768                   1.000958         40.2735
0.772                   1.000007        39.69447
0.776                  0.9990186        39.14081
0.78                   0.9981711         38.6114
0.784                  0.9976174        38.10096
0.788                  0.9974607        37.60095
0.792                  0.9977328        37.10107
0.796                  0.9983888        36.59111
0.8                    0.9993138        36.06285
0.804                   1.000344        35.51154
0.808                   1.001294        34.93678
0.812                   1.001993        34.34252
0.816                   1.002311        33.73648
0.82                    1.002188         33.1287
0.824                   1.001639        32.52983
0.828                   1.000758         31.9493
0.832                   0.999696        31.39356
0.836                  0.9986428        30.86496
0.84                   0.9977873        30.36113
0.844                  0.9972859        29.87536
0.848                  0.9972333        29.39768
0.852                  0.9976439         28.9167
0.856                  0.9984486        28.42162
0.86                   0.9995061        27.90428
0.864                   1.000628        27.36062
0.868                   1.001613         26.7914
0.872                   1.002281        26.20211
0.876                   1.002509        25.60197
0.88                    1.002249        25.00234
0.884                    1.00154        24.41476
0.888                   1.000503        23.84892
0.892                  0.9993182        23.31089
0.896                  0.9981973          22.802
0.9                    0.9973426        22.31838
0.904                   0.996912         21.8516
0.908                  0.9969889        21.39007
0.912                   0.997566        20.92115
0.916                  0.9985448        20.43348
0.92                   0.9997529        19.91905
0.924                   1.000975        19.37469
0.928                    1.00199        18.80265
0.932                   1.002613        18.21017
0.936                   1.002724        17.60825
0.94                    1.002297        17.00975
0.944                   1.001399        16.42716
0.948                   1.000182        15.87038
0.952                  0.9988595        15.34495
0.956                  0.9976686        14.85088
0.96                   0.9968256        14.38249
0.964                  0.9964884        13.92932
0.968                  0.9967253        13.47789
0.972                  0.9975014        13.01421
0.976                  0.9986833        12.52631
0.98                    1.000062        12.00651
0.984                   1.001392        11.45281
0.988                    1.00243        10.86924
0.992                   1.002986        10.26515
0.996                    1.00295        9.653625
1                       1.002318        9.049207
1.004                   1.001193        8.465409
1.008                  0.9997657         7.91231
1.012                  0.9982877        7.394669
1.016                  0.9970239        6.910885
1.02                   0.9962065        6.453067
1.024                  0.9959904        6.008305
1.028                  0.9964245        5.560936
1.032                    0.99744        5.095419
1.036                   0.998861        4.599236
1.04                    1.000436        4.065208
1.044                   1.001881        3.492812
1.048                   1.002934         2.88827
1.052                   1.003396        2.263469
1.056                   1.003172        1.633922
1.06                    1.002289        1.016136
1.064                   1.000889       0.4247606
1.068                  0.9992131       -0.130029
1.072                  0.9975555      -0.6445003
1.076                  0.9962152       -1.122287
1.08                   0.9954404       -1.574005
1.084                  0.9953815        -2.01551
1.088                  0.9960615       -2.465072
1.092                  0.9973692       -2.939988
1.096                  0.9990768       -3.453348
1.1                     1.000881       -4.011598
1.104                   1.002456       -4.613373
1.108                   1.003513       -5.249756
1.112                   1.003848       -5.905755
1.116                   1.003386       -6.562982
1.12                    1.002189       -7.202589
1.124                   1.000453       -7.808535
1.128                  0.9984753       -8.370723
1.132                  0.9966053       -8.886696
1.136                  0.9951819       -9.362668
1.14                   0.9944716       -9.812659
1.144                  0.9946174       -10.25618
1.148                  0.9956091       -10.71467
1.152                  0.9972816       -11.20755
1.156                  0.9993432       -11.74849
1.16                    1.001426       -12.34295
1.164                   1.003154       -12.98715
1.168                   1.004204       -13.66878
1.172                   1.004371       -14.36906
1.176                     1.0036       -15.06594
1.18                    1.002003       -15.73768
1.184                  0.9998414       -16.36672
1.188                   0.997485        -16.9428
1.192                  0.9953511       -17.46526
1.196                  0.9938293        -17.9436
1.2                    0.9932093       -18.39621
1.204                  0.9936237       -18.84728
1.208                   0.995019       -19.32231
1.212                  0.9971612       -19.84338
1.216                  0.9996758       -20.42491
1.22                    1.002113         -21.071
1.224                    1.00403       -21.77479
1.228                   1.005064       -22.51962
1.232                   1.005002       -23.28182
1.236                   1.003821        -24.0346
1.24                    1.001693       -24.75248
1.244                  0.9989646       -25.41566
1.248                  0.9961026       -26.01378
1.252                  0.9936142       -26.54836
1.256                  0.9919576       -27.03325
1.26                   0.9914545       -27.49267
1.264                  0.9922252       -27.95712
1.268                  0.9941595       -28.45768
1.272                  0.9969317       -29.02004
1.276                   1.000056       -29.65968
1.28                    1.002971       -30.37905
1.284                   1.005141       -31.16717
1.288                   1.006147       -32.00159
1.292                   1.005766       -32.85201
1.296                   1.004009       -33.68517
1.3                     1.001131       -34.47019
1.304                  0.9975932       -35.18393
1.308                  0.9939979        -35.8155
1.312                  0.9909821       -36.36918
1.316                  0.9891052       -36.86476
1.32                    0.988741        -37.3348
1.324                  0.9899978       -37.81898
1.328                  0.9926894       -38.35663
1.332                  0.9963606       -38.97904
1.336                   1.000365        -39.7036
1.34                    1.003978        -40.5307
1.344                   1.006525       -41.44378
1.348                   1.007496       -42.41223
1.352                   1.006638       -43.39616
1.356                   1.004005       -44.35257
1.36                   0.9999647       -45.24206
1.364                  0.9951487       -46.03565
1.368                  0.9903619       -46.72067
1.372                  0.9864488       -47.30477
1.376                  0.9841397       -47.81642
1.38                   0.9839059       -48.30119
1.384                  0.9858557       -48.81378
1.388                  0.9896959       -49.40748
1.392                  0.9947732       -50.12362
1.396                   1.000186       -50.98381
1.4                      1.00494       -51.98625
1.404                   1.008118        -53.1065
1.408                   1.009038       -54.30155
1.412                   1.007369       -55.51625
1.416                   1.003205       -56.69118
1.42                   0.9970707       -57.77143
1.424                  0.9898689       -58.71584
1.428                  0.9827565        -59.5059
1.432                  0.9769608       -60.15248
1.436                  0.9735565         -60.698
1.44                   0.9732448       -61.21178
1.444                  0.9761858       -61.77811
1.448                  0.9819321       -62.47963
1.452                  0.9894851       -63.38061
1.456                  0.9974614         -64.515
1.46                    1.004326       -65.88139
1.464                   1.008642       -67.44473
1.468                   1.009303       -69.14226
1.472                    1.00571       -70.89207
1.476                  0.9978984       -72.60291
1.48                   0.9865808       -74.18544
1.484                  0.9731168       -75.56594
1.488                  0.9593737       -76.70235
1.492                  0.9474699       -77.60112
1.496                  0.9394064       -78.32952
1.5                    0.9366332       -79.01576
1.504                  0.9396547       -79.83155
1.508                  0.9478009        -80.9592
1.512                  0.9592436       -82.55544
1.516                  0.9712444       -84.72554
1.52                    0.980535       -87.51533
1.524                  0.9837164       -90.91775
1.528                   0.977598       -94.88638
1.532                  0.9594474       -99.34884
1.536                  0.9271559        -104.216
1.54                   0.8793366       -109.3851
1.544                  0.8153756        -114.736
1.548                  0.7354517       -120.1167
1.552                  0.6405435       -125.3078
1.556                  0.5324657       -129.9347
1.56                   0.4140562       -133.2163
1.564                  0.2900567       -133.0668
1.568                  0.1722645       -121.8187
1.572                  0.1149404       -74.58988
1.576                  0.1905884       -34.57762
1.58                   0.3111913       -26.40542
1.584                  0.4348389       -27.15368
1.588                  0.5518616       -30.81131
1.592                  0.6579493       -35.64704
1.596                  0.7504275       -40.98125
1.6                    0.8275871       -46.47558
1.604                  0.8885446         -51.925
1.608                  0.9332206       -57.18284
1.612                  0.9623369       -62.13006
1.616                  0.9774001       -66.66282
1.62                   0.9806527       -70.68971
1.624                  0.9749726        -74.1363
1.628                  0.9637001       -76.95605
1.632                  0.9503732        -79.1454
1.636                  0.9383607       -80.75926
1.64                   0.9304321       -81.91761
1.644                  0.9283499       -82.79492
1.648                   0.932619       -83.58967
1.652                  0.9424988       -84.48321
1.656                  0.9562788       -85.60498
1.66                   0.9717204       -87.01621
1.664                    0.98652       -88.71318
1.668                  0.9986891       -90.64243
1.672                   1.006809        -92.7192
1.676                   1.010164       -94.84411
1.68                    1.008769       -96.91679
1.684                   1.003319       -98.84705
1.688                  0.9950638       -100.5651
1.692                  0.9856198        -102.031
1.696                  0.9767249       -103.2418
1.7                     0.969963       -104.2347
1.704                  0.9664963        -105.083
1.708                  0.9668676       -105.8824
1.712                  0.9709212        -106.732
1.716                  0.9778673       -107.7146
1.72                   0.9864666       -108.8818
1.724                  0.9952819       -110.2485
1.728                   1.002933       -111.7951
1.732                    1.00831       -113.4753
1.736                    1.01072       -115.2256
1.74                    1.009963       -116.9761
1.744                   1.006332       -118.6592
1.748                    1.00056       -120.2192
1.752                  0.9936937       -121.6197
1.756                  0.9869369       -122.8495
1.76                   0.9814505        -123.926
1.764                  0.9781584        -124.893
1.768                  0.9775877       -125.8133
1.772                  0.9797807       -126.7567
1.776                  0.9843031       -127.7866
1.78                   0.9903406       -128.9479
1.784                  0.9968613       -130.2606
1.788                   1.002801       -131.7188
1.792                   1.007239       -133.2938
1.796                    1.00953       -134.9406
1.8                     1.009393       -136.6058
1.804                   1.006936       -138.2351
1.808                   1.002631       -139.7809
1.812                  0.9972351       -141.2092
1.816                  0.9916741       -142.5049
1.82                   0.9868897       -143.6752
1.824                  0.9836835       -144.7487
1.828                  0.9825787       -145.7713
1.832                  0.9837304       -146.7975
1.836                  0.9869046       -147.8801
1.84                   0.9915307       -149.0606
1.844                  0.9968126       -150.3619
1.848                   1.001874        -151.786
1.852                   1.005904       -153.3153
1.856                   1.008285       -154.9162
1.86                    1.008678       -156.5458
1.864                   1.007069       -158.1579
1.868                    1.00376       -159.7096
1.872                  0.9993239       -161.1681
1.876                  0.9945109       -162.5152
1.88                   0.9901284       -163.7508
1.884                  0.9869088        -164.894
1.888                  0.9853832       -165.9795
1.892                  0.9857902       -167.0521
1.896                  0.9880359       -168.1583
1.9                    0.9917168       -169.3375
1.904                  0.9961978       -170.6152
1.908                   1.000727       -171.9993
1.912                   1.004566       -173.4801
1.916                   1.007106       -175.0324
1.92                    1.007961       -176.6204
1.924                   1.007019       -178.2037
1.928                    1.00446       -179.7425
1.932                    1.00072        178.7958
1.936                  0.9964237        177.4323
1.94                   0.9922888        176.1723
1.944                  0.9890045        175.0044
1.948                  0.9871165        173.9015
1.952                  0.9869319        172.8258
1.956                  0.9884658        171.7351
1.96                   0.9914418        170.5911
1.964                  0.9953449         169.366
1.968                  0.9995154         168.047
1.972                   1.003263        166.6376
1.976                    1.00598        165.1565
1.98                    1.007237        163.6336
1.984                   1.006844        162.1056
1.988                   1.004878        160.6098
1.992                   1.001671        159.1793
1.996                   0.997754        157.8375
2                      0.9937768        156.5943
2.004                  0.9904019         155.444
2.008                  0.9881922        154.3657
2.012                  0.9875144        153.3266
2.016                  0.9884734        152.2879
2.02                   0.9908948        151.2116
2.024                  0.9943585        150.0677
2.028                  0.9982746        148.8392
2.032                   1.001988        147.5245
2.036                   1.004885        146.1368
2.04                    1.006495        144.7016
2.044                    1.00656        143.2524
2.048                   1.005073        141.8251
2.052                   1.002279        140.4533
2.056                   0.998636        139.1628
2.06                   0.9947439        137.9674
2.064                  0.9912492        136.8662
2.068                  0.9887362        135.8432
2.072                  0.9876262        134.8696
2.076                   0.988102        133.9088
2.08                   0.9900755        132.9228
2.084                  0.9932031        131.8794
2.088                  0.9969494        130.7578
2.092                    1.00068        129.5515
2.096                   1.003771        128.2694
2.1                     1.005709        126.9332
2.104                    1.00617        125.5741
2.108                   1.005075        124.2273
2.112                   1.002592        122.9274
2.116                  0.9991225        121.7027
2.12                   0.9952301        120.5706
2.124                  0.9915578        119.5346
2.128                  0.9887183        118.5829
2.132                  0.9871901        117.6899
2.136                  0.9872305        116.8203
2.14                   0.9888294        115.9354
2.144                   0.991709        115.0004
2.148                   0.995374        113.9903
2.152                  0.9991991        112.8944
2.156                   1.002536        111.7172
2.16                    1.004819        110.4774
2.164                   1.005658        109.2046
2.168                   1.004896        107.9341
2.172                   1.002635        106.7021
2.176                  0.9992253        105.5401
2.18                   0.9952091        104.4698
2.184                  0.9912401        103.4991
2.188                  0.9879761        102.6202
2.192                  0.9859662        101.8101
2.196                  0.9855531        101.0341
2.2                     0.986808        100.2516
2.204                  0.9895157        99.42401
2.208                  0.9932107        98.52128
2.212                  0.9972591        97.52737
2.216                   1.000967        96.44247
2.22                    1.003695        95.28238
2.224                   1.004963        94.07562
2.228                   1.004522        92.85881
2.232                   1.002398        91.67124
2.236                  0.9988919         90.5491
2.24                   0.9945364        89.51977
2.244                  0.9900196        88.59704
2.248                  0.9860753        87.77791
2.252                   0.983361        87.04195
2.256                  0.9823399         86.3539
2.26                   0.9831933        85.66949
2.264                  0.9857811        84.94344
2.268                  0.9896622         84.1378
2.272                  0.9941681         83.2287
2.276                  0.9985171        82.21002
2.28                    1.001942          81.094
2.284                   1.003815        79.90871
2.288                   1.003743         78.6936
2.292                   1.001638        77.49386
2.296                  0.9977301        76.35393
2.3                    0.9925524        75.31104
2.304                  0.9868651         74.3888
2.308                  0.9815475        73.59218
2.312                  0.9774564        72.90472
2.316                  0.9752768        72.28942
2.32                   0.9753894        71.69394
2.324                  0.9777883        71.05958
2.328                  0.9820659        70.33204
2.332                   0.987473        69.47137
2.336                  0.9930391        68.45864
2.34                   0.9977267        67.29857
2.344                   1.000593        66.01808
2.348                   1.000935        64.66204
2.352                  0.9983986        63.28731