! TOUCHSTONE file generated by CST MICROWAVE STUDIO
! Date and time: Tue Jun  7 21:57:06 2022
! Project name: AppElm_antenne_patch_FR4.cst
! Parameters = {L=45; W=58.5; e=0.035; h=1.6; lambda=0.190476; ls=138; w0=1.6; w1=0.533; ws=120; y0=20; y1=23.81}
! Header version: 2018
! Port assignment regex: !\s*Touchstone port\s*([0-9]+)\s*=\s*(CST MWS port|CST DS port)\s*([0-9]+|Zmin|Zmax)\s*\(\"(.*)\"\)(\s*mode\s*([0-9]+))?.*
! Touchstone port assignment:
! Touchstone port 1 = CST MWS port 1 ("")
# GHz S MA R 50
0                      0.9894124              -0
0.004                  0.9900487       -9.932915
0.008                  0.9918693       -19.77858
0.012                  0.9946238         -29.454
0.016                  0.9979373         -38.884
0.02                    1.001367       -48.00364
0.024                   1.004465       -56.75943
0.028                   1.006841        -65.1095
0.032                   1.008213       -73.02305
0.036                   1.008442        -80.4798
0.04                    1.007543       -87.46941
0.044                   1.005686       -93.99117
0.048                   1.003163        -100.054
0.052                   1.000351       -105.6765
0.056                  0.9976535       -110.8864
0.06                   0.9954449       -115.7199
0.064                  0.9940158       -120.2192
0.068                  0.9935322       -124.4301
0.072                  0.9940138       -128.3985
0.076                  0.9953366       -132.1665
0.08                   0.9972576       -135.7697
0.084                  0.9994571       -139.2347
0.088                   1.001591       -142.5788
0.092                   1.003342       -145.8102
0.096                   1.004467       -148.9294
0.1                      1.00483       -151.9322
0.104                   1.004417       -154.8115
0.108                   1.003328       -157.5608
0.112                   1.001768       -160.1762
0.116                   1.000001       -162.6586
0.12                   0.9983181       -165.0143
0.124                  0.9969826       -167.2555
0.128                  0.9961943       -169.3993
0.132                  0.9960578       -171.4656
0.136                  0.9965687       -173.4745
0.14                   0.9976184       -175.4444
0.144                  0.9990154       -177.3892
0.148                    1.00052       -179.3171
0.152                   1.001884        178.7697
0.156                   1.002892        176.8749
0.16                    1.003394        175.0062
0.164                   1.003326        173.1742
0.168                   1.002719        171.3895
0.172                    1.00169         169.661
0.176                    1.00042        167.9945
0.18                   0.9991264        166.3909
0.184                   0.998024         164.846
0.188                  0.9972904        163.3515
0.192                  0.9970377        161.8953
0.196                  0.9972943        160.4641
0.2                    0.9980031        159.0451
0.204                  0.9990327        157.6282
0.208                   1.000202         156.207
0.212                    1.00131        154.7801
0.216                   1.002174        153.3507
0.22                    1.002654        151.9257
0.224                   1.002678        150.5145
0.228                   1.002252        149.1272
0.232                   1.001457        147.7729
0.236                   1.000433        146.4578
0.24                    0.999357        145.1847
0.244                  0.9984121        143.9517
0.248                  0.9977558        142.7531
0.252                  0.9974944          141.58
0.256                  0.9976648        140.4217
0.26                   0.9982302        139.2678
0.264                  0.9990866        138.1096
0.268                   1.000082        136.9417
0.272                   1.001046        135.7627
0.276                   1.001812        134.5752
0.28                    1.002253        133.3853
0.284                   1.002299        132.2016
0.288                   1.001947        131.0333
0.292                   1.001262        129.8889
0.296                   1.000366        128.7745
0.3                    0.9994126        127.6932
0.304                  0.9985677         126.644
0.308                   0.997975        125.6221
0.312                  0.9977339        124.6199
0.316                  0.9978825        123.6281
0.32                   0.9983906        122.6373
0.324                  0.9991664        121.6396
0.328                   1.000073        120.6303
0.332                   1.000953        119.6078
0.336                   1.001655        118.5748
0.34                    1.002058        117.5369
0.344                   1.002097        116.5021
0.348                   1.001767        115.4791
0.352                   1.001128        114.4759
0.356                   1.000292        113.4986
0.36                   0.9994055        112.5499
0.364                  0.9986228        111.6292
0.368                  0.9980795        110.7319
0.372                  0.9978691        109.8511
0.376                  0.9980267        108.9778
0.38                   0.9985229        108.1033
0.384                  0.9992695        107.2203
0.388                   1.000135        106.3243
0.392                   1.000968         105.414
0.396                   1.001623        104.4922
0.4                     1.001988        103.5644
0.404                   1.002001        102.6384
0.408                   1.001659        101.7227
0.412                   1.001024        100.8251
0.416                   1.000208        99.95125
0.42                   0.9993518        99.10383
0.424                  0.9986069         98.2819
0.428                  0.9981037        97.48104
0.432                  0.9979302        96.69415
0.436                  0.9981165        95.91261
0.44                   0.9986295        95.12791
0.444                  0.9993783        94.33302
0.448                   1.000231        93.52374
0.452                   1.001038        92.69932
0.456                   1.001657        91.86258
0.46                     1.00198        91.01941
0.464                    1.00195        90.17764
0.468                   1.001573        89.34577
0.472                   1.000913        88.53142
0.476                   1.000086        87.74007
0.48                   0.9992368        86.97403
0.484                  0.9985153        86.23199
0.488                  0.9980487        85.50922
0.492                  0.9979196        84.79839
0.496                  0.9981516        84.09074
0.5                    0.9987038        83.37782
0.504                  0.9994786        82.65285
0.508                   1.000339        81.91198
0.512                   1.001133        81.15492
0.516                    1.00172          80.385
0.52                    1.001996        79.60851
0.524                    1.00191        78.83364
0.528                   1.001477        78.06896
0.532                    1.00077        77.32212
0.536                  0.9999134        76.59829
0.54                   0.9990574        75.89933
0.544                  0.9983533        75.22342
0.548                  0.9979266        74.56527
0.552                   0.997854        73.91703
0.556                  0.9981497        73.26969
0.56                   0.9987622        72.61473
0.564                  0.9995834        71.94553
0.568                   1.000468        71.25874
0.572                   1.001258        70.55466
0.576                   1.001814        69.83724
0.58                    1.002034        69.11346
0.584                   1.001879        68.39193
0.588                   1.001373        67.68158
0.592                   1.000602        66.98996
0.596                  0.9997015        66.32194
0.6                    0.9988307        65.67884
0.604                  0.9981443        65.05811
0.608                  0.9977656        64.45369
0.612                  0.9977642        63.85706
0.616                  0.9981424        63.25879
0.62                   0.9988346        62.65021
0.624                  0.9997187        62.02494
0.628                   1.000638        61.38015
0.632                   1.001428        60.71689
0.636                   1.001948        60.04003
0.64                    1.002102        59.35731
0.644                   1.001861        58.67804
0.648                   1.001263        58.01141
0.652                   1.000411        57.36499
0.656                  0.9994557        56.74325
0.66                   0.9985653        56.14681
0.664                  0.9978997        55.57218
0.668                  0.9975798        55.01233
0.672                  0.9976656        54.45793
0.676                  0.9981447        53.89897
0.68                   0.9989341        53.32663
0.684                  0.9998941        52.73487
0.688                   1.000854        52.12149
0.692                   1.001642        51.48854
0.696                   1.002115        50.84191
0.7                     1.002186        50.19037
0.704                   1.001838        49.54392
0.708                   1.001129         48.9122
0.712                   1.000181        48.30267
0.716                  0.9991594        47.71933
0.72                   0.9982478        47.16186
0.724                  0.9976099        46.62565
0.728                  0.9973627         46.1025
0.732                  0.9975545        45.58207
0.736                  0.9981542        45.05375
0.74                   0.9990576        44.50859
0.744                   1.000104        43.94096
0.748                   1.001108         43.3495
0.752                   1.001887        42.73742
0.756                   1.002299        42.11192
0.76                    1.002267        41.48287
0.764                   1.001791         40.8612
0.768                   1.000949        40.25689
0.772                  0.9998883        39.67728
0.776                  0.9987949        39.12568
0.78                   0.9978646        38.60067
0.784                  0.9972664        38.09624
0.788                  0.9971114        37.60282
0.792                  0.9974322        37.10892
0.796                  0.9981755        36.60326
0.8                    0.9992113        36.07685
0.804                   1.000356        35.52456
0.808                   1.001403        34.94615
0.812                   1.002164        34.34624
0.816                   1.002499         33.7335
0.82                    1.002341        33.11917
0.824                   1.001711        32.51509
0.828                   1.000716        31.93164
0.832                   0.999529        31.37591
0.836                  0.9983593        30.85031
0.84                   0.9974176        30.35203
0.844                  0.9968766        29.87344
0.848                  0.9968388        29.40332
0.852                  0.9973169        28.92892
0.856                  0.9982305        28.43825
0.86                   0.9994192        27.92234
0.864                   1.000671        27.37686
0.868                   1.001762        26.80288
0.872                   1.002492        26.20671
0.876                   1.002726        25.59879
0.88                    1.002414        24.99186
0.884                   1.001603        24.39877
0.888                   1.000432        23.83028
0.892                  0.9991035        23.29302
0.896                   0.997855         22.7883
0.9                    0.9969126        22.31159
0.904                  0.9964509        21.85331
0.908                  0.9965602        21.40036
0.912                  0.9972283        20.93855
0.916                  0.9983416        20.45522
0.92                   0.9997042        19.94156
0.924                   1.001073        19.39425
0.928                   1.002201        18.81601
0.932                   1.002882        18.21518
0.936                   1.002986        17.60423
0.94                    1.002485         16.9976
0.944                   1.001458        16.40927
0.948                   1.000081        15.85026
0.952                  0.9985949        15.32662
0.956                   0.997265        14.83816
0.96                   0.9963346        14.37832
0.964                  0.9959784        13.93515
0.968                  0.9962697         13.4934
0.972                  0.9971655         13.0373
0.976                  0.9985119        12.55349
0.98                    1.000071        12.03353
0.984                   1.001564         11.4754
0.988                   1.002721        10.88388
0.992                   1.003327        10.26971
0.996                   1.003264        9.647733
1                        1.00253        9.034343
1.004                   1.001244        8.444706
1.008                  0.9996256        7.890053
1.012                  0.9979598         7.37557
1.016                  0.9965455        6.899247
1.02                   0.9956429        6.451976
1.024                  0.9954245        6.019007
1.028                  0.9959416        5.582551
1.032                  0.9971119         5.12507
1.036                  0.9987328        4.632555
1.04                    1.000517        4.097125
1.044                   1.002145        3.518466
1.048                   1.003319        2.903876
1.052                   1.003819        2.266976
1.056                   1.003542        1.625399
1.06                     1.00252       0.9977992
1.064                   1.000921       0.4006555
1.068                  0.9990171      -0.1546703
1.072                  0.9971452      -0.6641468
1.076                  0.9956431       -1.132107
1.08                   0.9947898       -1.570793
1.084                  0.9947523       -1.998351
1.088                  0.9955526       -2.435576
1.092                  0.9970593       -2.902037
1.096                  0.9990107       -3.412396
1.1                      1.00106       -3.973683
1.104                   1.002839       -4.584058
1.108                   1.004019       -5.233063
1.112                   1.004376       -5.903596
1.116                   1.003826       -6.574675
1.12                    1.002446       -7.225019
1.124                   1.000461       -7.836511
1.128                  0.9982132       -8.397818
1.132                  0.9960989       -8.906405
1.136                  0.9945029       -9.369553
1.14                   0.9937258       -9.803435
1.144                  0.9939263        -10.2304
1.148                  0.9950872       -10.67494
1.152                  0.9970161       -11.15902
1.156                  0.9993768       -11.69799
1.16                    1.001749       -12.29771
1.164                   1.003704       -12.95351
1.168                   1.004879       -13.65111
1.172                   1.005044         -14.369
1.176                   1.004142       -15.08204
1.18                    1.002305       -15.76559
1.184                  0.9998328       -16.39977
1.188                  0.9971514       -16.97313
1.192                  0.9947361       -17.48509
1.196                  0.9930302       -17.94675
1.2                    0.9923607       -18.37933
1.204                  0.9928741       -18.81059
1.208                  0.9945036       -19.26971
1.212                  0.9969765       -19.78172
1.216                  0.9998612       -20.36276
1.22                    1.002644       -21.01711
1.224                   1.004818       -21.73652
1.228                   1.005976        -22.5017
1.232                    1.00588       -23.28552
1.236                   1.004508       -24.05745
1.24                    1.002062       -24.78852
1.244                  0.9989419       -25.45629
1.248                  0.9956818       -26.04913
1.252                  0.9928628       -26.56899
1.256                  0.9910069       -27.03194
1.26                   0.9904783       -27.46598
1.264                  0.9914089        -27.9062
1.268                  0.9936661       -28.38819
1.272                  0.9968705       -28.94113
1.276                   1.000462       -29.58232
1.28                    1.003798       -30.31403
1.284                   1.006268       -31.12323
1.288                   1.007399       -31.98397
1.292                   1.006939       -32.86155
1.296                    1.00491       -33.71798
1.3                     1.001606       -34.51816
1.304                  0.9975606       -35.23573
1.308                  0.9934642       -35.85839
1.312                   0.990047       -36.39125
1.316                  0.9879489       -36.85722
1.32                   0.9875937       -37.29398
1.324                  0.9890998        -37.7473
1.328                  0.9922451       -38.26229
1.332                  0.9965004       -38.87454
1.336                    1.00112       -39.60342
1.34                    1.005273       -40.44866
1.344                    1.00819       -41.39076
1.348                   1.009294       -42.39435
1.352                   1.008301       -43.41378
1.356                   1.005281       -44.39998
1.36                    1.000658       -45.30798
1.364                  0.9951601       -46.10466
1.368                  0.9897131       -46.77552
1.372                  0.9852866       -47.32939
1.376                  0.9827192       -47.79923
1.38                   0.9825487       -48.23783
1.384                  0.9848924       -48.70843
1.388                  0.9894039       -49.27231
1.392                  0.9953236       -49.97653
1.396                    1.00161       -50.84501
1.4                     1.007124       -51.87472
1.404                   1.010817       -53.03692
1.408                   1.011916         -54.282
1.412                    1.01005       -55.54695
1.416                    1.00533       -56.76396
1.42                   0.9983637       -57.87022
1.424                  0.9901871       -58.81832
1.428                  0.9821323       -59.58652
1.432                  0.9756145       -60.18694
1.436                  0.9718753        -60.6684
1.44                   0.9717241       -61.11121
1.444                  0.9753401        -61.6132
1.448                  0.9821988       -62.26963
1.452                  0.9911403       -63.15368
1.456                   1.000569       -64.30274
1.46                    1.008725        -65.7135
1.464                   1.013969       -67.34454
1.468                   1.015046       -69.12374
1.472                   1.011278       -70.95786
1.476                   1.002704       -72.74303
1.48                   0.9901388       -74.37689
1.484                  0.9751367       -75.77347
1.488                  0.9598491       -76.88162
1.492                  0.9467382       -77.70535
1.496                  0.9381536       -78.31974
1.5                    0.9358206       -78.87236
1.504                  0.9403697       -79.56251
1.508                  0.9510653       -80.60083
1.512                  0.9658388       -82.16524
1.516                  0.9815974       -84.37123
1.52                   0.9946806       -87.26507
1.524                    1.00132       -90.83456
1.528                  0.9980113       -95.02689
1.532                  0.9817803       -99.76545
1.536                  0.9503446       -104.9611
1.54                    0.902207       -110.5173
1.544                  0.8366951        -116.329
1.548                   0.753964       -122.2728
1.552                  0.6549776       -128.1833
1.556                  0.5414882       -133.7909
1.56                   0.4160737       -138.5367
1.564                  0.2825213       -140.8452
1.568                   0.148958       -133.5338
1.572                 0.07625932       -67.54624
1.576                  0.1797744       -22.58363
1.58                   0.3148758       -19.18856
1.584                   0.447076       -22.39421
1.588                  0.5700727       -27.48841
1.592                  0.6804144       -33.28099
1.596                  0.7756863       -39.31302
1.6                    0.8542743        -45.3485
1.604                  0.9153559       -51.23442
1.608                  0.9589292       -56.85147
1.612                  0.9858341        -62.0943
1.616                  0.9977496       -66.86402
1.62                   0.9971542       -71.06835
1.624                  0.9872278        -74.6283
1.628                  0.9716754       -77.49182
1.632                  0.9544381       -79.65322
1.636                  0.9392803       -81.17328
1.64                   0.9292837       -82.18975
1.644                  0.9263612       -82.90569
1.648                  0.9309566       -83.55235
1.652                  0.9420695       -84.33809
1.656                   0.957606       -85.40672
1.66                    0.974916        -86.8201
1.664                  0.9913364        -88.5653
1.668                   1.004616       -90.57455
1.672                   1.013186       -92.74761
1.676                   1.016288       -94.97024
1.68                    1.013996       -97.12874
1.684                   1.007145       -99.12157
1.688                   0.997194       -100.8703
1.692                  0.9860099       -102.3299
1.696                   0.975591       -103.4981
1.7                    0.9677486        -104.419
1.704                  0.9637968       -105.1787
1.708                  0.9643207       -105.8895
1.712                  0.9690894       -106.6665
1.716                  0.9771412       -107.6042
1.72                   0.9870109       -108.7593
1.724                  0.9970287       -110.1454
1.728                   1.005615       -111.7365
1.732                   1.011521       -113.4772
1.736                   1.013986       -115.2938
1.74                    1.012813        -117.106
1.744                   1.008372       -118.8373
1.748                   1.001524       -120.4246
1.752                  0.9934885       -121.8269
1.756                  0.9856548       -123.0324
1.76                    0.979357       -124.0622
1.764                  0.9756467       -124.9681
1.768                  0.9751082       -125.8239
1.772                  0.9777593        -126.711
1.776                  0.9830651       -127.7021
1.78                   0.9900597       -128.8478
1.784                  0.9975392       -130.1689
1.788                   1.004279       -131.6563
1.792                   1.009234       -133.2753
1.796                   1.011685       -134.9732
1.8                     1.011335       -136.6884
1.804                   1.008331        -138.359
1.808                   1.003237       -139.9308
1.812                  0.9969387       -141.3657
1.816                  0.9905064       -142.6471
1.82                   0.9850255       -143.7842
1.824                  0.9814114       -144.8112
1.828                  0.9802513        -145.782
1.832                  0.9817008       -146.7603
1.836                  0.9854634       -147.8072
1.84                   0.9908576       -148.9696
1.844                  0.9969512       -150.2726
1.848                   1.002731       -151.7166
1.852                   1.007271       -153.2798
1.856                   1.009878       -154.9227
1.86                    1.010182       -156.5954
1.864                   1.008189       -158.2449
1.868                   1.004266       -159.8226
1.872                  0.9990852       -161.2914
1.876                  0.9935178       -162.6309
1.88                   0.9884966       -163.8423
1.884                  0.9848604       -164.9481
1.888                  0.9832086       -165.9898
1.892                  0.9837975       -167.0196
1.896                  0.9864957       -168.0915
1.9                    0.9908163       -169.2505
1.904                   0.996011       -170.5248
1.908                   1.001207       -171.9222
1.912                   1.005558       -173.4297
1.916                   1.008376       -175.0176
1.92                    1.009233       -176.6442
1.924                   1.008024       -178.2627
1.928                   1.004972       -179.8278
1.932                   1.000594        178.6973
1.936                  0.9956201        177.3362
1.94                   0.9908798        176.0941
1.944                  0.9871641        174.9569
1.948                  0.9850921        173.8924
1.952                  0.9850008        172.8561
1.956                  0.9868865        171.7991
1.96                   0.9904089        170.6773
1.964                   0.994957        169.4595
1.968                  0.9997612        168.1324
1.972                   1.004027        166.7016
1.976                   1.007066        165.1895
1.98                    1.008398        163.6314
1.984                   1.007826        162.0696
1.988                   1.005458        160.5469
1.992                   1.001692        159.1008
1.996                  0.9971507        157.7574
2                      0.9925889        156.5273
2.004                  0.9887681        155.4028
2.008                  0.9863282         154.359
2.012                  0.9856763        153.3571
2.016                  0.9869121        152.3517
2.02                   0.9898122        151.2992
2.024                  0.9938729        150.1659
2.028                  0.9984032        148.9333
2.032                   1.002645         147.601
2.036                   1.005901        146.1857
2.04                    1.007645        144.7175
2.044                     1.0076        143.2353
2.048                   1.005779        141.7804
2.052                   1.002483        140.3909
2.056                  0.9982536        139.0956
2.06                   0.9937887        137.9096
2.064                  0.9898337        136.8307
2.068                  0.9870537        135.8394
2.072                  0.9859184        134.9015
2.076                  0.9866168         133.974
2.08                   0.9890227        133.0133
2.084                  0.9927181        131.9829
2.088                  0.9970706          130.86
2.092                   1.001346         129.639
2.096                    1.00483        128.3314
2.1                     1.006949        126.9634
2.104                   1.007353        125.5714
2.108                   1.005971         124.196
2.112                   1.003024        122.8764
2.116                  0.9989883        121.6443
2.12                   0.9945243        120.5188
2.124                  0.9903736        119.5026
2.128                  0.9872348        118.5809
2.132                   0.985642        117.7229
2.136                  0.9858679        116.8872
2.14                   0.9878724        116.0291
2.144                  0.9913089        115.1091
2.148                  0.9955878        114.0999
2.152                  0.9999809        112.9908
2.156                   1.003747        111.7891
2.16                    1.006253        110.5176
2.164                   1.007073         109.211
2.168                   1.006057        107.9102
2.172                   1.003349        106.6564
2.176                  0.9993733        105.4847
2.18                   0.9947698        104.4189
2.184                  0.9902943        103.4665
2.188                  0.9866962         102.617
2.192                  0.9845891        101.8425
2.196                  0.9843387        101.1018
2.2                    0.9859927        100.3481
2.204                  0.9892702        99.53759
2.208                  0.9936095        98.63728
2.212                  0.9982688        97.63097
2.216                   1.002454        96.52111
2.22                    1.005449        95.32781
2.224                    1.00673        94.08496
2.228                   1.006049        92.83501
2.232                   1.003472         91.6226
2.236                  0.9993745        90.48815
2.24                   0.9943894         89.4615
2.244                  0.9893153        88.55657
2.248                  0.9849885        87.76778
2.252                  0.9821424        87.06965
2.256                  0.9812735        86.42023
2.26                   0.9825454        85.76809
2.264                  0.9857521        85.06194
2.268                  0.9903495        84.26017
2.272                  0.9955501        83.33818
2.276                   1.000458        82.29218
2.28                    1.004214        81.13887
2.284                   1.006138        79.91228
2.288                   1.005829        78.65833
2.292                   1.003234        77.42834
2.296                  0.9986645        76.27186
2.3                     0.992763        75.22931
2.304                  0.9864166        74.32513
2.308                   0.980628        73.56199
2.312                  0.9763523         72.9181
2.316                   0.974326        72.34871
2.32                   0.9749227        71.79273
2.324                  0.9780675        71.18356
2.328                  0.9832354        70.46173
2.332                  0.9895324        69.58573
2.336                  0.9958435        68.53881
2.34                     1.00101        67.33084
2.344                   1.004013        65.99577
2.348                   1.004122        64.58638
2.352                   1.001014        63.16735