! TOUCHSTONE file generated by CST MICROWAVE STUDIO
! Date and time: Tue Jun  7 21:57:03 2022
! Project name: AppElm_antenne_patch_FR4.cst
! Parameters = {L=45; W=58.5; e=0.035; h=1.6; lambda=0.190476; ls=120; w0=1.6; w1=0.533; ws=120; y0=20; y1=23.81}
! Header version: 2018
! Port assignment regex: !\s*Touchstone port\s*([0-9]+)\s*=\s*(CST MWS port|CST DS port)\s*([0-9]+|Zmin|Zmax)\s*\(\"(.*)\"\)(\s*mode\s*([0-9]+))?.*
! Touchstone port assignment:
! Touchstone port 1 = CST MWS port 1 ("")
# GHz S MA R 50
0                      0.9892759              -0
0.004                  0.9899165        -9.93033
0.008                    0.99175       -19.77356
0.012                  0.9945254       -29.44681
0.016                  0.9978669       -38.87506
0.02                     1.00133       -47.99347
0.024                   1.004465       -56.74864
0.028                    1.00688       -65.09873
0.032                   1.008288       -73.01301
0.036                   1.008547       -80.47111
0.04                     1.00767       -87.46262
0.044                   1.005823       -93.98665
0.048                   1.003297       -100.0519
0.052                   1.000467       -105.6768
0.056                  0.9977395       -110.8886
0.06                   0.9954904       -115.7233
0.064                  0.9940155        -120.223
0.068                  0.9934866       -124.4334
0.072                  0.9939293       -128.4003
0.076                  0.9952253       -132.1662
0.08                   0.9971353       -135.7667
0.084                  0.9993418       -139.2291
0.088                   1.001499       -142.5709
0.092                   1.003289       -145.8007
0.096                   1.004461       -148.9193
0.1                     1.004874       -151.9224
0.104                   1.004504       -154.8032
0.108                   1.003447       -157.5547
0.112                   1.001902        -160.173
0.116                   1.000131       -162.6584
0.12                   0.9984235       -165.0168
0.124                  0.9970474       -167.2601
0.128                  0.9962081       -169.4049
0.132                  0.9960177       -171.4709
0.136                  0.9964805       -173.4785
0.14                   0.9974951        -175.446
0.144                  0.9988756       -177.3878
0.148                   1.000385       -179.3127
0.152                   1.001775        178.7769
0.156                   1.002825        176.8839
0.16                     1.00338        175.0162
0.164                   1.003367        173.1837
0.168                   1.002807        171.3974
0.172                   1.001811        169.6664
0.176                   1.000555        167.9968
0.18                   0.9992533          166.39
0.184                  0.9981209        164.8424
0.188                  0.9973411         163.346
0.192                   0.997033        161.8891
0.196                  0.9972341        160.4586
0.2                    0.9978964        159.0415
0.204                  0.9988961        157.6273
0.208                   1.000057        156.2094
0.212                    1.00118        154.7857
0.216                   1.002079        153.3588
0.22                     1.00261        151.9354
0.224                   1.002692        150.5245
0.228                   1.002321        149.1362
0.232                    1.00157        147.7797
0.236                   1.000571        146.4616
0.24                   0.9994972        145.1851
0.244                  0.9985315        143.9491
0.248                  0.9978345        142.7481
0.252                  0.9975191        141.5737
0.256                  0.9976319        140.4156
0.26                   0.9981452        139.2631
0.264                  0.9989646        138.1075
0.268                  0.9999441        136.9427
0.272                   1.000915         135.767
0.276                   1.001711        134.5823
0.28                    1.002201        133.3944
0.284                   1.002305        132.2114
0.288                   1.002012        131.0423
0.292                   1.001375        129.8959
0.296                   1.000509        128.7785
0.3                    0.9995632        127.6938
0.304                  0.9987007        126.6412
0.308                  0.9980685        125.6166
0.312                  0.9977723        124.6129
0.316                  0.9978592        123.6209
0.32                   0.9983099        122.6314
0.324                  0.9990421        121.6363
0.328                  0.9999267        120.6302
0.332                   1.000809        119.6113
0.336                   1.001538        118.5814
0.34                     1.00199        117.5458
0.344                   1.002088         116.512
0.348                    1.00182        115.4886
0.352                   1.001235        114.4836
0.356                   1.000436        113.5033
0.36                   0.9995623        112.5511
0.364                  0.9987663        111.6267
0.368                  0.9981858        110.7266
0.372                  0.9979205        109.8438
0.376                  0.9980149        108.9702
0.38                   0.9984505        108.0968
0.384                  0.9991493        107.2162
0.388                  0.9999883        106.3235
0.392                   1.000821        105.4169
0.396                   1.001502        104.4984
0.4                     1.001914        103.5731
0.404                   1.001987        102.6482
0.408                    1.00171        101.7322
0.412                   1.001132        100.8327
0.416                   1.000353        99.95587
0.42                   0.9995112         99.1048
0.424                  0.9987527        98.27914
0.428                  0.9982105         97.4752
0.432                   0.997979        96.68636
0.436                  0.9980979        95.90442
0.44                   0.9985461        95.12091
0.444                  0.9992436        94.32864
0.448                   1.000068        93.52295
0.452                   1.000873        92.70249
0.456                   1.001519        91.86944
0.46                    1.001893          91.029
0.464                   1.001929         90.1886
0.468                   1.001621        89.35648
0.472                   1.001023        88.54027
0.476                    1.00024        87.74581
0.48                   0.9994085        86.97591
0.484                  0.9986756        86.22992
0.488                  0.9981705        85.50381
0.492                  0.9979825        84.79085
0.496                  0.9981453        84.08266
0.5                    0.9986305        83.37088
0.504                  0.9993523        82.64853
0.508                   1.000183        81.91134
0.512                   1.000977        81.15834
0.516                   1.001592        80.39217
0.52                    1.001921        79.61843
0.524                   1.001904        78.84484
0.528                   1.001543        78.07978
0.532                     1.0009        77.33085
0.536                   1.000087        76.60361
0.54                   0.9992467         75.9005
0.544                  0.9985274        75.22039
0.548                  0.9980566        74.55875
0.552                  0.9979186        73.90835
0.556                  0.9981388        73.26059
0.56                   0.9986789          72.607
0.564                  0.9994435        71.94081
0.568                   1.000297        71.25809
0.572                   1.001088        70.55843
0.576                   1.001676        69.84509
0.58                    1.001956        69.12428
0.584                   1.001876        68.40416
0.588                   1.001448        67.69334
0.592                   1.000746        66.99947
0.596                  0.9998929        66.32778
0.6                    0.9990391        65.68025
0.604                  0.9983364        65.05505
0.608                   0.997911        64.44694
0.612                  0.9978407        63.84807
0.616                    0.99814        63.24939
0.62                   0.9987572        62.64232
0.624                  0.9995842        62.02023
0.628                   1.000474         61.3797
0.632                   1.001269        60.72105
0.636                   1.001825        60.04832
0.64                    1.002044        59.36852
0.644                   1.001883         58.6904
0.648                   1.001367        58.02295
0.652                   1.000586        57.37382
0.656                  0.9996758        56.74795
0.66                   0.9987974        56.14662
0.664                  0.9981078        55.56721
0.668                  0.9977316        55.00355
0.672                  0.9977385        54.44695
0.676                  0.9981297        53.88788
0.68                   0.9988377         53.3175
0.684                  0.9997371        52.72946
0.688                   1.000668        52.12092
0.692                   1.001464        51.49308
0.696                   1.001982        50.85096
0.7                     1.002126         50.2025
0.704                   1.001867        49.55721
0.708                   1.001248        48.92446
0.712                   1.000374        48.31191
0.716                  0.9994006        47.72402
0.72                   0.9984998        47.16128
0.724                  0.9978339           46.62
0.728                  0.9975252        46.09288
0.732                  0.9976322        45.57032
0.736                  0.9981397        45.04207
0.74                   0.9989595        44.49922
0.744                  0.9999469        43.93568
0.748                   1.000926        43.34939
0.752                   1.001721        42.74262
0.756                   1.002187        42.12161
0.76                    1.002237        41.49544
0.764                   1.001858        40.87446
0.768                   1.001111         40.2685
0.772                   1.000126         39.6851
0.776                  0.9990756        39.12821
0.78                   0.9981471        38.59728
0.784                  0.9975084        38.08735
0.788                  0.9972772        37.58981
0.792                  0.9974988        37.09394
0.796                  0.9981374        36.58881
0.8                    0.9990813        36.06532
0.804                   1.000163        35.51788
0.808                   1.001188        34.94537
0.812                    1.00197        34.35138
0.816                   1.002367        33.74352
0.82                    1.002302         33.1322
0.824                    1.00178        32.52868
0.828                   1.000887        31.94322
0.832                  0.9997789        31.38321
0.836                  0.9986511        30.85178
0.84                    0.997706        30.34715
0.844                   0.997116        29.86281
0.848                  0.9969921        29.38859
0.852                  0.9973621        28.91249
0.856                  0.9981647        28.42287
0.86                   0.9992597        27.91056
0.864                   1.000453        27.37059
0.868                   1.001529        26.80305
0.872                   1.002294        26.21312
0.876                   1.002605        25.61008
0.88                      1.0024         25.0058
0.884                   1.001708         24.4126
0.888                   1.000645        23.84116
0.892                  0.9993958        23.29859
0.896                  0.9981822        22.78703
0.9                    0.9972228        22.30315
0.904                   0.996694        21.83863
0.908                   0.996697         21.3815
0.912                  0.9972377        20.91835
0.916                  0.9982244        20.43678
0.92                   0.9994837        19.92768
0.924                    1.00079        19.38694
0.928                   1.001909        18.81613
0.932                   1.002633        18.22231
0.936                   1.002828        17.61668
0.94                    1.002449        17.01279
0.944                   1.001553        16.42408
0.948                   1.000294        15.86159
0.952                  0.9988889        15.33194
0.956                  0.9975901        14.83598
0.96                   0.9966331         14.3685
0.964                  0.9961967        13.91894
0.968                  0.9963681        13.47326
0.972                   0.997125        13.01645
0.976                  0.9983389        12.53534
0.98                    0.999796        12.02102
0.984                   1.001236        11.47049
0.988                     1.0024         10.8872
0.992                   1.003071        10.28043
0.996                   1.003123        9.663708
1                       1.002534        9.052445
1.004                   1.001397        8.461349
1.008                  0.9999059        7.901792
1.012                  0.9983221        7.379725
1.016                  0.9969289        6.894398
1.02                   0.9959811        6.438278
1.024                  0.9956578        5.998205
1.028                  0.9960273        5.557703
1.032                  0.9970332        5.099996
1.036                  0.9985016        4.611141
1.04                    1.000173        4.082623
1.044                   1.001746        3.512919
1.048                   1.002934        2.907758
1.052                   1.003515        2.279123
1.056                   1.003372        1.643191
1.06                    1.002514        1.017593
1.064                   1.001078       0.4183872
1.068                  0.9993106      -0.1427878
1.072                  0.9975201      -0.6609385
1.076                  0.9960288       -1.138883
1.08                   0.9951123       -1.587048
1.084                  0.9949474         -2.0218
1.088                  0.9955778       -2.462539
1.092                  0.9969024       -2.928116
1.096                  0.9986924       -3.433281
1.1                     1.000631       -3.985948
1.104                   1.002369       -4.585752
1.108                    1.00359       -5.224129
1.112                   1.004061        -5.88581
1.116                   1.003682       -6.551399
1.12                      1.0025       -7.200648
1.124                   1.000707       -7.815858
1.128                  0.9986096       -8.385199
1.132                  0.9965766       -8.904866
1.136                  0.9949761       -9.380277
1.14                   0.9941069       -9.825436
1.144                  0.9941417       -10.26064
1.148                  0.9950915       -10.70883
1.152                  0.9968001       -11.19127
1.156                  0.9989701       -11.72358
1.16                    1.001215       -12.31277
1.164                   1.003128       -12.95605
1.168                   1.004356       -13.64129
1.172                   1.004658       -14.34913
1.176                   1.003954        -15.0562
1.18                    1.002342       -15.73901
1.184                   1.000083       -16.37795
1.188                  0.9975615       -16.96089
1.192                  0.9952221       -17.48567
1.196                   0.993491        -17.9611
1.2                    0.9926964       -18.40584
1.204                  0.9930044       -18.84528
1.208                  0.9943833       -19.30694
1.212                  0.9966052       -19.81523
1.216                  0.9992838       -20.38683
1.22                    1.001942       -21.02761
1.224                     1.0041       -21.73162
1.228                   1.005354       -22.48218
1.232                   1.005453       -23.25468
1.236                   1.004344       -24.02064
1.24                    1.002185        -24.7523
1.244                  0.9993271       -25.42742
1.248                  0.9962575       -26.03342
1.252                  0.9935197       -26.57016
1.256                  0.9916175       -27.05083
1.26                   0.9909187       -27.50023
1.264                  0.9915822       -27.95057
1.268                  0.9935205       -28.43548
1.272                  0.9964099       -28.98357
1.276                  0.9997456       -29.61296
1.28                     1.00293       -30.32797
1.284                   1.005381       -31.11851
1.288                   1.006628       -31.96177
1.292                   1.006403       -32.82607
1.296                   1.004687       -33.67586
1.3                     1.001719       -34.47738
1.304                  0.9979752       -35.20445
1.308                  0.9940852       -35.84346
1.312                  0.9907365       -36.39682
1.316                  0.9885483       -36.88378
1.32                   0.9879525       -37.33795
1.324                  0.9891048       -37.80154
1.328                  0.9918435        -38.3174
1.332                  0.9957099       -38.92067
1.336                   1.000029       -39.63202
1.34                    1.004025       -40.45407
1.344                    1.00696       -41.37108
1.348                   1.008259       -42.35177
1.352                   1.007613        -43.3543
1.356                   1.005038        -44.3326
1.36                    1.000888       -45.24359
1.364                  0.9958089        -46.0543
1.368                  0.9906503        -46.7486
1.372                  0.9863221       -47.33172
1.376                  0.9836339       -47.83159
1.38                   0.9831343       -48.29536
1.384                  0.9849904       -48.78136
1.388                  0.9889369       -49.34774
1.392                  0.9943123       -50.04093
1.396                   1.000169       -50.88677
1.4                     1.005441       -51.88611
1.404                   1.009125       -53.01522
1.408                   1.010452        -54.2299
1.412                   1.009016       -55.47215
1.416                   1.004861       -56.67831
1.42                   0.9984968       -57.78824
1.424                  0.9908489        -58.7551
1.428                   0.983139       -59.55516
1.432                  0.9766945       -60.19555
1.436                  0.9727115       -60.71769
1.44                   0.9720105       -61.19339
1.444                  0.9748448       -61.71271
1.448                  0.9808115       -62.36616
1.452                   0.988899       -63.22608
1.456                  0.9976558       -64.33292
1.46                    1.005438       -65.68919
1.464                   1.010679       -67.26088
1.468                   1.012141       -68.98369
1.472                   1.009111       -70.77189
1.476                   1.001539       -72.52856
1.48                   0.9901016       -74.15694
1.484                  0.9761796       -75.57462
1.488                  0.9617285       -76.73038
1.492                   0.949024        -77.6229
1.496                  0.9402771       -78.31559
1.5                    0.9371655       -78.93943
1.504                  0.9403895       -79.67602
1.508                  0.9493948       -80.72268
1.512                  0.9623634       -82.25174
1.516                  0.9764666       -84.38107
1.52                   0.9882749       -87.16415
1.524                  0.9941897       -90.59739
1.528                  0.9908127        -94.6355
1.532                  0.9752127       -99.20695
1.536                   0.945102        -104.225
1.54                   0.8989382       -109.5929
1.544                  0.8359739       -115.2022
1.548                  0.7562694       -120.9233
1.552                  0.6606862       -126.5794
1.556                  0.5508812       -131.8824
1.56                   0.4293764        -136.248
1.564                  0.3000132       -138.1161
1.568                   0.171019       -131.2775
1.572                 0.08889774       -81.22973
1.576                   0.167525       -29.21026
1.58                   0.2963717       -21.88794
1.584                  0.4260908         -23.677
1.588                  0.5481389       -28.06019
1.592                   0.658576        -33.4237
1.596                  0.7548026       -39.16844
1.6                    0.8350844       -45.00075
1.604                   0.898483       -50.74087
1.608                  0.9448648       -56.25663
1.612                  0.9749146       -61.43691
1.616                  0.9901319       -66.18113
1.62                   0.9927922       -70.39734
1.624                  0.9858553       -74.00729
1.628                  0.9728027       -76.95788
1.632                  0.9573738       -79.23802
1.636                  0.9431904       -80.89672
1.64                   0.9332944       -82.05352
1.644                  0.9296916       -82.89042
1.648                  0.9330457       -83.62096
1.652                  0.9426538       -84.44501
1.656                  0.9567252       -85.50849
1.66                   0.9728568       -86.88332
1.664                  0.9885421          -88.57
1.668                   1.001593       -90.51391
1.672                   1.010423       -92.62582
1.676                   1.014191       -94.79998
1.68                    1.012845       -96.92862
1.684                   1.007065       -98.91383
1.688                  0.9981442       -100.6781
1.692                  0.9877922       -102.1744
1.696                  0.9778816       -103.3949
1.7                    0.9701507       -104.3752
1.704                  0.9659111       -105.1908
1.708                  0.9658181        -105.944
1.712                  0.9697697       -106.7432
1.716                   0.976962       -107.6804
1.72                   0.9860824       -108.8148
1.724                  0.9955809       -110.1655
1.728                    1.00395        -111.714
1.732                   1.009959        -113.412
1.736                   1.012816       -115.1924
1.74                    1.012256         -116.98
1.744                   1.008549       -118.7019
1.748                   1.002442       -120.2963
1.752                  0.9950385       -121.7214
1.756                  0.9876299       -122.9624
1.76                    0.981484       -124.0346
1.764                  0.9776334       -124.9828
1.768                  0.9766947       -125.8735
1.772                  0.9787629       -126.7824
1.776                  0.9834108       -127.7793
1.78                   0.9897864        -128.915
1.784                  0.9967856       -130.2134
1.788                   1.003254       -131.6703
1.792                   1.008177       -133.2563
1.796                    1.01083       -134.9243
1.8                     1.010873       -136.6171
1.804                   1.008386        -138.276
1.808                   1.003844       -139.8487
1.812                  0.9980434        -141.297
1.816                  0.9919725       -142.6024
1.82                   0.9866557       -143.7702
1.824                  0.9829818       -144.8294
1.828                  0.9815497       -145.8282
1.832                   0.982565       -146.8255
1.836                  0.9858097       -147.8794
1.84                    0.990692        -149.036
1.844                  0.9963643       -150.3222
1.848                   1.001878       -151.7418
1.852                   1.006346       -153.2774
1.856                   1.009079       -154.8939
1.86                    1.009681       -156.5454
1.864                   1.008108       -158.1822
1.868                   1.004658       -159.7576
1.872                  0.9999262       -161.2348
1.876                  0.9947121       -162.5925
1.88                   0.9898892       -163.8289
1.884                  0.9862635       -164.9625
1.888                  0.9844342       -166.0299
1.892                  0.9846894       -167.0791
1.896                  0.9869571       -168.1607
1.9                    0.9908247       -169.3185
1.904                  0.9956199       -170.5815
1.908                   1.000533       -171.9599
1.912                   1.004759       -173.4443
1.916                   1.007624       -175.0087
1.92                    1.008688       -176.6152
1.924                   1.007809       -178.2201
1.928                   1.005153       -179.7803
1.932                   1.001172        178.7403
1.936                  0.9965294        177.3657
1.94                   0.9919986        176.1034
1.944                  0.9883343        174.9425
1.948                  0.9861452        173.8548
1.952                  0.9857882        172.7999
1.956                  0.9873055        171.7321
1.96                     0.99042        170.6091
1.964                   0.994589        169.3995
1.968                  0.9991046        168.0882
1.972                   1.003216         166.678
1.976                   1.006257        165.1878
1.98                    1.007742        163.6495
1.984                   1.007448        162.1022
1.988                   1.005435        160.5866
1.992                   1.002043        159.1388
1.996                  0.9978329        157.7853
2                      0.9935037         156.538
2.004                  0.9897762        155.3922
2.008                  0.9872738        154.3264
2.012                  0.9864133        153.3056
2.016                    0.98733        152.2878
2.02                   0.9898553        151.2315
2.024                  0.9935491        150.1032
2.028                  0.9977802        148.8834
2.032                   1.001838        147.5693
2.036                   1.005051        146.1743
2.04                    1.006897        144.7253
2.044                   1.007079        143.2581
2.048                   1.005571        141.8117
2.052                   1.002621        140.4228
2.056                  0.9987111          139.12
2.06                   0.9944857        137.9194
2.064                  0.9906465        136.8213
2.068                  0.9878365        135.8093
2.072                  0.9865285        134.8529
2.076                  0.9869396        133.9125
2.08                   0.9889922        132.9466
2.084                  0.9923279        131.9196
2.088                  0.9963741        130.8079
2.092                   1.000445        129.6038
2.096                    1.00386         128.316
2.1                      1.00605        126.9674
2.104                   1.006653        125.5913
2.108                   1.005564        124.2258
2.112                   1.002955        122.9086
2.116                  0.9992433        121.6709
2.12                   0.9950355        120.5325
2.124                  0.9910274        119.4983
2.128                  0.9878904        118.5563
2.132                  0.9861558        117.6795
2.136                  0.9861187        116.8297
2.14                    0.987783        115.9649
2.144                  0.9908597        115.0466
2.148                  0.9948194        114.0471
2.152                   0.998986         112.954
2.156                   1.002653        111.7717
2.16                      1.0052        110.5197
2.164                   1.006194        109.2298
2.168                    1.00545        107.9403
2.172                    1.00307        106.6904
2.176                  0.9994194        105.5147
2.18                   0.9950824        104.4374
2.184                  0.9907664         103.468
2.188                  0.9871892        102.5987
2.192                  0.9849572        101.8053
2.196                  0.9844542        101.0501
2.2                    0.9857702         100.289
2.204                  0.9886808        99.47969
2.208                  0.9926871        98.58895
2.212                  0.9971025        97.59888
2.216                   1.001172        96.50922
2.22                    1.004197        95.33677
2.224                   1.005649        94.11218
2.228                   1.005249        92.87506
2.232                   1.003018        91.66809
2.236                  0.9992732        90.53066
2.24                   0.9945877        89.49297
2.244                  0.9897063        88.57062
2.248                  0.9854284        87.76091
2.252                  0.9824737         87.0421
2.256                  0.9813532        86.37608
2.26                    0.982271        85.71468
2.264                  0.9850805        85.00841
2.268                   0.989305        84.21579
2.272                  0.9942191        83.31067
2.276                  0.9989728        82.28639
2.28                    1.002732        81.15617
2.284                   1.004813        79.95049
2.288                   1.004789        78.71209
2.292                    1.00256        77.48993
2.296                  0.9983758        76.33226
2.3                    0.9928125        75.27957
2.304                  0.9866958        74.35776
2.308                  0.9809816        73.57248
2.312                  0.9766034        72.90604
2.316                  0.9743074        72.31817
2.32                   0.9745079        71.75183
2.324                  0.9771965        71.14299
2.328                   0.981926         70.4327
2.332                  0.9878794        69.57789
2.336                  0.9940015        68.55863
2.34                   0.9991692        67.38069
2.344                   1.002367        66.07373
2.348                   1.002842         64.6866
2.352                   1.000219        63.28078