! TOUCHSTONE file generated by CST MICROWAVE STUDIO
! Date and time: Tue Jun  7 21:57:07 2022
! Project name: AppElm_antenne_patch_FR4.cst
! Parameters = {L=45; W=58.5; e=0.035; h=1.6; lambda=0.190476; ls=144; w0=1.6; w1=0.533; ws=120; y0=20; y1=23.81}
! Header version: 2018
! Port assignment regex: !\s*Touchstone port\s*([0-9]+)\s*=\s*(CST MWS port|CST DS port)\s*([0-9]+|Zmin|Zmax)\s*\(\"(.*)\"\)(\s*mode\s*([0-9]+))?.*
! Touchstone port assignment:
! Touchstone port 1 = CST MWS port 1 ("")
# GHz S MA R 50
0                      0.9894879              -0
0.004                  0.9901214       -9.934049
0.008                  0.9919343       -19.78077
0.012                  0.9946761        -29.4571
0.016                  0.9979729       -38.88778
0.02                    1.001382       -48.00782
0.024                   1.004459       -56.76369
0.028                   1.006813       -65.11348
0.032                   1.008165        -73.0264
0.036                   1.008377        -80.4822
0.04                    1.007467       -87.47055
0.044                   1.005606       -93.99091
0.048                   1.003088       -100.0523
0.052                   1.000289       -105.6735
0.056                  0.9976117       -110.8824
0.06                   0.9954283       -115.7153
0.064                  0.9940269       -120.2146
0.068                  0.9935697        -124.426
0.072                  0.9940727       -128.3955
0.076                  0.9954091       -132.1649
0.08                   0.9973338       -135.7697
0.084                  0.9995261       -139.2364
0.088                   1.001643       -142.5818
0.092                   1.003369       -145.8141
0.096                   1.004466       -148.9337
0.1                     1.004801       -151.9361
0.104                   1.004362       -154.8145
0.108                   1.003257       -157.5624
0.112                    1.00169       -160.1762
0.116                  0.9999292       -162.6568
0.12                   0.9982626       -165.0111
0.124                  0.9969522       -167.2513
0.128                  0.9961937       -169.3948
0.132                  0.9960873       -171.4614
0.136                  0.9966236       -173.4713
0.14                   0.9976899       -175.4427
0.144                   0.999092       -177.3893
0.148                   1.000589       -179.3189
0.152                   1.001935        178.7665
0.156                   1.002916        176.8707
0.16                    1.003387        175.0019
0.164                   1.003289        173.1703
0.168                   1.002658        171.3867
0.172                   1.001614        169.6599
0.176                   1.000341        167.9951
0.18                   0.9990578        166.3932
0.184                  0.9979767        164.8497
0.188                  0.9972721        163.3559
0.192                  0.9970512        161.8998
0.196                  0.9973374        160.4679
0.2                    0.9980684        159.0476
0.204                  0.9991093        157.6289
0.208                   1.000276        156.2059
0.212                    1.00137        154.7774
0.216                   1.002209        153.3468
0.22                    1.002659        151.9213
0.224                   1.002651        150.5104
0.228                   1.002198        149.1241
0.232                   1.001384        147.7712
0.236                   1.000354         146.458
0.24                   0.9992846        145.1866
0.244                   0.998359        143.9552
0.248                  0.9977312        142.7575
0.252                  0.9975023        141.5846
0.256                  0.9977042        140.4258
0.26                   0.9982943        139.2706
0.264                  0.9991648        138.1107
0.268                   1.000162        136.9409
0.272                   1.001112        135.7601
0.276                   1.001854        134.5713
0.28                    1.002265        133.3809
0.284                   1.002278        132.1973
0.288                   1.001897        131.0298
0.292                   1.001192        129.8868
0.296                   1.000287        128.7743
0.3                    0.9993394        127.6949
0.304                  0.9985128        126.6473
0.308                   0.997948        125.6264
0.312                    0.99774        124.6245
0.316                  0.9979209        123.6322
0.32                   0.9984549        122.6401
0.324                  0.9992461        121.6407
0.328                   1.000155        120.6294
0.332                   1.001022        119.6051
0.336                     1.0017        118.5708
0.34                    1.002072        117.5322
0.344                   1.002077        116.4974
0.348                   1.001716        115.4753
0.352                   1.001055        114.4736
0.356                    1.00021        113.4982
0.36                   0.9993291        112.5514
0.364                  0.9985648        111.6323
0.368                  0.9980499        110.7361
0.372                  0.9978733        109.8556
0.376                  0.9980639        108.9818
0.38                   0.9985866         108.106
0.384                  0.9993483        107.2213
0.388                   1.000215        106.3232
0.392                   1.001035        105.4112
0.396                   1.001666         104.488
0.4                     1.001998        103.5595
0.404                   1.001976        102.6336
0.408                   1.001603        101.7188
0.412                   1.000947        100.8228
0.416                   1.000121        99.95089
0.42                   0.9992713        99.10548
0.424                  0.9985462        98.28522
0.428                  0.9980728        97.48543
0.432                  0.9979344        96.69881
0.436                  0.9981544         95.9167
0.44                   0.9986941        95.13065
0.444                  0.9994578        94.33392
0.448                   1.000311        93.52261
0.452                   1.001103        92.69633
0.456                   1.001696        91.85823
0.46                    1.001985        91.01441
0.464                    1.00192        90.17286
0.468                   1.001511        89.34201
0.472                    1.00083        88.52934
0.476                  0.9999962        87.74002
0.48                   0.9991551        86.97599
0.484                  0.9984554        86.23563
0.488                  0.9980207         85.5139
0.492                  0.9979281         84.8032
0.496                  0.9981944        84.09486
0.5                    0.9987729        83.38047
0.504                  0.9995615        82.65353
0.508                   1.000421        81.91056
0.512                   1.001198        81.15162
0.516                   1.001757        80.38037
0.52                    1.001996        79.60334
0.524                   1.001874        78.82878
0.528                    1.00141        78.06529
0.532                   1.000683        77.32024
0.536                  0.9998208         76.5985
0.54                   0.9989752        75.90161
0.544                  0.9982956        75.22733
0.548                  0.9979028         74.5701
0.552                   0.997868        73.92188
0.556                  0.9981983        73.27368
0.56                   0.9988361        72.61708
0.564                  0.9996686        71.94582
0.568                   1.000549        71.25685
0.572                   1.001319        70.55086
0.576                   1.001843        69.83219
0.58                    1.002026          69.108
0.584                   1.001833          68.387
0.588                   1.001295          67.678
0.592                   1.000506        66.98832
0.596                  0.9996032        66.32253
0.6                    0.9987458        65.68154
0.604                  0.9980868         65.0624
0.608                  0.9977447        64.45877
0.612                  0.9977822        63.86201
0.616                  0.9981949        63.26267
0.62                   0.9989107        62.65228
0.624                  0.9998035        62.02482
0.628                   1.000715        61.37778
0.632                   1.001481         60.7127
0.636                   1.001966        60.03472
0.64                     1.00208        59.35179
0.644                     1.0018        58.67324
0.648                   1.001172        58.00822
0.652                   1.000305        57.36394
0.656                  0.9993503        56.74456
0.66                   0.9984777        56.15024
0.664                  0.9978432        55.57714
0.668                  0.9975628        55.01794
0.672                  0.9976893        54.46318
0.676                  0.9982027        53.90293
0.68                   0.9990138         53.3286
0.684                  0.9999792         52.7345
0.688                   1.000927        52.11886
0.692                   1.001687        51.48414
0.696                   1.002122        50.83656
0.7                     1.002152        50.18501
0.704                   1.001765        49.53959
0.708                   1.001028        48.90971
0.712                   1.000067        48.30253
0.716                  0.9990514        47.72164
0.72                   0.9981623         47.1663
0.724                  0.9975601        46.63151
0.728                   0.997356        46.10878
0.732                  0.9975898        45.58774
0.736                  0.9982233        45.05785
0.74                   0.9991461        44.51047
0.744                   1.000194        43.94035
0.748                   1.001181        43.34659
0.752                   1.001928        42.73283
0.756                   1.002299        42.10654
0.76                    1.002223        41.47778
0.764                   1.001709         40.8574
0.768                   1.000841        40.25519
0.772                  0.9997721        39.67813
0.776                  0.9986896        39.12906
0.78                   0.9977874        38.60612
0.784                  0.9972299        38.10293
0.788                  0.9971209        37.60968
0.792                   0.997485        37.11482
0.796                  0.9982609        36.60728
0.8                    0.9993127        36.07837
0.804                   1.000454        35.52344
0.808                   1.001479        34.94272
0.812                   1.002203        34.34123
0.816                   1.002492        33.72794
0.82                    1.002288        33.11418
0.824                   1.001621        32.51171
0.828                   1.000603        31.93065
0.832                  0.9994125        31.37765
0.836                  0.9982594        30.85464
0.84                   0.9973518        30.35836
0.844                  0.9968564        29.88078
0.848                  0.9968676         29.4105
0.852                  0.9973894        28.93478
0.856                  0.9983334        28.44187
0.86                   0.9995335        27.92321
0.864                   1.000776        27.37494
0.868                   1.001838        26.79866
0.872                   1.002525        26.20108
0.876                   1.002709        25.59289
0.88                     1.00235        24.98688
0.884                   1.001503        24.39577
0.888                   1.000312        23.82996
0.892                  0.9989862        23.29564
0.896                   0.997761        22.79357
0.9                    0.9968591        22.31875
0.904                   0.996448        21.86121
0.908                  0.9966092        21.40773
0.912                  0.9973208        20.94421
0.916                  0.9984615        20.45827
0.92                   0.9998302        19.94159
0.924                   1.001183        19.39138
0.928                   1.002275        18.81089
0.932                   1.002907        18.20886
0.936                   1.002957        17.59797
0.94                    1.002407        16.99268
0.944                   1.001346        16.40674
0.948                  0.9999542        15.85076
0.952                  0.9984767        15.33025
0.956                  0.9971778        14.84448
0.96                   0.9962951        14.38636
0.964                   0.995995        13.94363
0.968                  0.9963409        13.50093
0.972                  0.9972798        13.04265
0.976                  0.9986499        12.55583
0.98                    1.000209        12.03257
0.984                   1.001678        11.47144
0.988                   1.002791        10.87776
0.992                   1.003341        10.26266
0.996                    1.00322        9.641145
1                       1.002437        9.029556
1.004                   1.001119        8.442755
1.008                  0.9994916        7.891489
1.012                  0.9978424        7.380344
1.016                  0.9964675          6.9067
1.02                   0.9956208        6.460942
1.024                  0.9954646        6.028018
1.028                  0.9960388        5.590114
1.032                   0.997251        5.129939
1.036                  0.9988908        4.633967
1.04                    1.000668        4.094941
1.044                   1.002262        3.513192
1.048                   1.003384        2.896565
1.052                   1.003821         2.25905
1.056                   1.003482        1.618401
1.06                     1.00241       0.9931289
1.064                   1.000781        0.399328
1.068                  0.9988754      -0.1522172
1.072                  0.9970292      -0.6581505
1.076                  0.9955764        -1.12346
1.08                   0.9947876         -1.5609
1.084                  0.9948186       -1.988875
1.088                  0.9956786        -2.42813
1.092                  0.9972254       -2.897878
1.096                  0.9991898        -3.41219
1.1                     1.001223       -3.977384
1.104                   1.002957       -4.590916
1.108                   1.004075       -5.241805
1.112                   1.004361        -5.91253
1.116                   1.003744       -6.582162
1.12                    1.002313       -7.229499
1.124                   1.000304       -7.837113
1.128                  0.9980612       -8.394158
1.132                  0.9959832       -8.898967
1.136                  0.9944483       -9.359506
1.14                   0.9937462        -9.79246
1.144                  0.9940221       -10.22039
1.148                  0.9952456       -10.66764
1.152                  0.9972121        -11.1557
1.156                  0.9995785       -11.69919
1.16                    1.001924       -12.30315
1.164                   1.003823       -12.96218
1.168                   1.004923       -13.66142
1.172                   1.005007       -14.37905
1.176                   1.004033       -15.08993
1.18                    1.002145       -15.76977
1.184                  0.9996532       -16.39931
1.188                  0.9969877       -16.96787
1.192                  0.9946221       -17.47578
1.196                  0.9929916       -17.93488
1.2                    0.9924099       -18.36693
1.204                  0.9930079       -18.79983
1.208                  0.9947034       -19.26249
1.212                  0.9972114       -19.77933
1.216                   1.000094       -20.36558
1.22                    1.002836       -21.02463
1.224                   1.004939       -21.74737
1.228                   1.006008       -22.51392
1.232                    1.00582        -23.2969
1.236                    1.00437       -24.06587
1.24                    1.001873       -24.79231
1.244                  0.9987391       -25.45455
1.248                  0.9955079       -26.04191
1.252                  0.9927553       -26.55736
1.256                  0.9909932       -27.01783
1.26                   0.9905693       -27.45186
1.264                  0.9915967       -27.89462
1.268                  0.9939249       -28.38126
1.272                  0.9971616       -28.94015
1.276                    1.00074       -29.58752
1.28                     1.00402       -30.32453
1.284                   1.006399       -31.13726
1.288                   1.007422       -31.99911
1.292                   1.006854       -32.87515
1.296                   1.004736       -33.72762
1.3                      1.00138       -34.52197
1.304                  0.9973295       -35.23283
1.308                  0.9932779       -35.84908
1.312                  0.9899497         -36.377
1.316                  0.9879704       -36.84057
1.32                   0.9877433       -37.27801
1.324                  0.9893635       -37.73508
1.328                   0.992588       -38.25628
1.332                  0.9968723       -38.87612
1.336                   1.001465       -39.61259
1.34                     1.00554       -40.46411
1.344                   1.008339       -41.41013
1.348                   1.009306       -42.41458
1.352                    1.00818       -43.43162
1.356                   1.005055       -44.41246
1.36                    1.000375       -45.31293
1.364                  0.9948799       -46.10112
1.368                  0.9894993       -46.76403
1.372                   0.985194       -47.31206
1.376                  0.9827833       -47.77943
1.38                   0.9827781       -48.21964
1.384                   0.985265       -48.69585
1.388                  0.9898711        -49.2684
1.392                  0.9958182       -49.98285
1.396                   1.002059       -50.86131
1.4                      1.00746       -51.89911
1.404                   1.010991       -53.06614
1.408                   1.011906       -54.31202
1.412                   1.009863       -55.57349
1.416                   1.005007       -56.78311
1.42                   0.9979681        -57.8791
1.424                  0.9898026       -58.81564
1.428                  0.9818465       -59.57305
1.432                  0.9755041       -60.16567
1.436                  0.9719904       -60.64425
1.44                   0.9720754       -61.09023
1.444                  0.9758954       -61.60124
1.448                  0.9828859        -62.2712
1.452                  0.9918608       -63.17098
1.456                   1.001215       -64.33539
1.46                    1.009197       -65.75869
1.464                   1.014195       -67.39765
1.468                   1.014988         -69.179
1.472                   1.010942       -71.00902
1.476                   1.002143       -72.78413
1.48                    0.989447       -74.40308
1.484                  0.9744423       -75.78198
1.488                  0.9592962       -76.87286
1.492                  0.9464631       -77.68374
1.496                  0.9382552       -78.29381
1.5                     0.936334       -78.85367
1.504                  0.9412492       -79.56327
1.508                  0.9521863       -80.63123
1.512                   0.967017        -82.2314
1.516                  0.9826176       -84.47476
1.52                   0.9953259        -87.4037
1.524                   1.001396       -91.00332
1.528                  0.9973614       -95.21935
1.532                  0.9802936       -99.97434
1.536                  0.9479605       -105.1787
1.54                   0.8989155       -110.7352
1.544                  0.8325347       -116.5375
1.548                  0.7490196       -122.4596
1.552                  0.6493782       -128.3302
1.556                  0.5354069       -133.8663
1.56                   0.4097421       -138.4724
1.564                  0.2763052       -140.4432
1.568                  0.1439475       -131.8366
1.572                 0.07994266       -63.46123
1.576                  0.1864292       -22.64705
1.58                   0.3210443       -19.60053
1.584                  0.4525064       -22.83458
1.588                  0.5746521        -27.9123
1.592                  0.6840677        -33.6787
1.596                  0.7783746       -39.68146
1.6                    0.8559972       -45.68583
1.604                  0.9161542       -51.53874
1.608                  0.9588845       -57.12061
1.612                  0.9850675       -62.32581
1.616                  0.9964177       -67.05547
1.62                   0.9954419       -71.21779
1.624                  0.9853388       -74.73498
1.628                  0.9698165       -77.55716
1.632                  0.9527986       -79.68179
1.636                   0.938008       -81.17332
1.64                   0.9284614       -82.17269
1.644                  0.9259928       -82.88435
1.648                  0.9309697       -83.53817
1.652                  0.9423358       -84.33886
1.656                  0.9579723       -85.42547
1.66                   0.9752348       -86.85565
1.664                  0.9914889       -88.61346
1.668                   1.004526       -90.62954
1.672                   1.012823       -92.80316
1.676                   1.015668        -95.0204
1.68                    1.013171       -97.16849
1.684                   1.006199       -99.14734
1.688                  0.9962256       -100.8803
1.692                   0.985121       -102.3246
1.696                  0.9748691       -103.4801
1.7                    0.9672529       -104.3931
1.704                  0.9635476       -105.1507
1.708                  0.9642963       -105.8653
1.712                  0.9692323       -106.6508
1.716                  0.9773707       -107.5996
1.72                   0.9872396        -108.766
1.724                  0.9971777       -110.1616
1.728                   1.005626       -111.7592
1.732                   1.011363       -113.5023
1.736                   1.013658       -115.3173
1.74                    1.012341       -117.1243
1.744                   1.007804       -118.8475
1.748                   1.000923       -120.4252
1.752                  0.9929239       -121.8177
1.756                  0.9851879       -123.0149
1.76                   0.9790334       -124.0391
1.764                  0.9754874       -124.9432
1.768                  0.9751065       -125.8011
1.772                  0.9778824       -126.6936
1.776                  0.9832613       -127.6923
1.78                   0.9902689       -128.8462
1.784                  0.9977033       -130.1748
1.788                   1.004352       -131.6677
1.792                   1.009187       -133.2893
1.796                   1.011511        -134.987
1.8                     1.011048       -136.6991
1.804                   1.007964       -138.3642
1.808                   1.002834       -139.9292
1.812                  0.9965493       -141.3569
1.816                  0.9901796       -142.6319
1.82                   0.9847989       -143.7644
1.824                  0.9813062       -144.7895
1.828                  0.9802677       -145.7614
1.832                  0.9818187       -146.7434
1.836                  0.9856471       -147.7959
1.84                   0.9910622       -148.9647
1.844                  0.9971312       -150.2738
1.848                   1.002847       -151.7226
1.852                   1.007298       -153.2885
1.856                   1.009804       -154.9318
1.86                    1.010015       -156.6026
1.864                    1.00795       -158.2483
1.868                   1.003989       -159.8208
1.872                  0.9988093       -161.2839
1.876                  0.9932828       -162.6181
1.88                   0.9883355       -163.8255
1.884                  0.9847936       -164.9293
1.888                  0.9832411       -165.9713
1.892                  0.9839173       -167.0037
1.896                  0.9866773       -168.0799
1.9                    0.9910247        -169.244
1.904                  0.9962083       -170.5235
1.908                    1.00136       -171.9252
1.912                   1.005641       -173.4355
1.916                   1.008377       -175.0243
1.92                    1.009155       -176.6498
1.924                   1.007881       -178.2655
1.928                   1.004789       -179.8267
1.932                   1.000403        178.7032
1.936                  0.9954553        177.3466
1.94                   0.9907703        176.1081
1.944                  0.9871307         174.973
1.948                   0.985142        173.9087
1.952                  0.9851281        172.8706
1.956                  0.9870724        171.8102
1.96                   0.9906256        170.6841
1.964                  0.9951725        169.4618
1.968                  0.9999454        168.1308
1.972                   1.004157        166.6971
1.976                   1.007127        165.1838
1.98                    1.008389        163.6262
1.984                   1.007756        162.0663
1.988                   1.005348        160.5469
1.992                   1.001568        159.1046
1.996                  0.9970422        157.7652
2                      0.9925225        156.5384
2.004                  0.9887635        155.4161
2.008                  0.9863955        154.3727
2.012                  0.9858129        153.3696
2.016                  0.9871044        152.3615
2.02                   0.9900377        151.3054
2.024                  0.9941042         150.168
2.028                  0.9986127        148.9317
2.032                   1.002811        147.5967
2.036                   1.006008        146.1799
2.04                    1.007689        144.7117
2.044                   1.007588        143.2309
2.048                   1.005726        141.7786
2.052                   1.002412        140.3924
2.056                   0.998189        139.1006
2.06                   0.9937558        137.9176
2.064                  0.9898523        136.8409
2.068                   0.987135        135.8503
2.072                   0.986063        134.9116
2.076                  0.9868147         133.982
2.08                   0.9892548        133.0181
2.084                  0.9929606         131.984
2.088                  0.9972987        130.8576
2.092                   1.001537        129.6337
2.096                   1.004971        128.3245
2.1                     1.007032        126.9562
2.104                   1.007382        125.5651
2.108                   1.005959        124.1918
2.112                    1.00299        122.8751
2.116                  0.9989545        121.6461
2.12                   0.9945144        120.5235
2.124                  0.9904071        119.5095
2.128                  0.9873238        118.5886
2.132                  0.9857894        117.7302
2.136                  0.9860666        116.8926
2.14                   0.9881064        116.0316
2.144                  0.9915568        115.1082
2.148                  0.9958259        114.0956
2.152                   1.000188        112.9837
2.156                   1.003908        111.7801
2.16                    1.006359         110.508
2.164                   1.007126         109.202
2.168                   1.006066        107.9029
2.172                   1.003332        106.6517
2.176                  0.9993515        105.4829
2.18                   0.9947653        104.4199
2.184                  0.9903265        103.4697
2.188                  0.9867787        102.6213
2.192                  0.9847267        101.8465
2.196                  0.9845264        101.1043
2.2                    0.9862173        100.3479
2.204                  0.9895114        99.53409
2.208                  0.9938447        98.63037
2.212                  0.9984765        97.62108
2.216                   1.002617        96.50911
2.22                    1.005557        95.31483
2.224                   1.006784        94.07229
2.228                   1.006055        92.82378
2.232                   1.003446        91.61372
2.236                  0.9993365        90.48215
2.24                   0.9943618        89.45838
2.244                  0.9893189         88.5558
2.248                  0.9850391         87.7684
2.252                  0.9822475        87.07039
2.256                   0.981431        86.41966
2.26                   0.9827438          85.765
2.264                  0.9859721        85.05548
2.268                  0.9905678        84.25006
2.272                  0.9957434        83.32471
2.276                   1.000606        82.27614
2.28                    1.004305         81.1214
2.284                   1.006166        79.89472
2.288                     1.0058        78.64196
2.292                   1.003162        77.41427
2.296                  0.9985703        76.26079
2.3                    0.9926709        75.22153
2.304                   0.986351        74.32025
2.308                  0.9806099         73.5591
2.312                  0.9763942         72.9158
2.316                  0.9744301        72.34535
2.32                   0.9750793        71.78669
2.324                  0.9782569        71.17364
2.328                  0.9834304        70.44723
2.332                  0.9897036        69.56669
2.336                   0.995963        68.51594
2.34                    1.001057        67.30538
2.344                   1.003976         65.9693
2.348                   1.004001        64.56057
2.352                   1.000821        63.14377