! TOUCHSTONE file generated by CST MICROWAVE STUDIO
! Date and time: Tue Jun  7 21:57:04 2022
! Project name: AppElm_antenne_patch_FR4.cst
! Parameters = {L=45; W=58.5; e=0.035; h=1.6; lambda=0.190476; ls=126; w0=1.6; w1=0.533; ws=120; y0=20; y1=23.81}
! Header version: 2018
! Port assignment regex: !\s*Touchstone port\s*([0-9]+)\s*=\s*(CST MWS port|CST DS port)\s*([0-9]+|Zmin|Zmax)\s*\(\"(.*)\"\)(\s*mode\s*([0-9]+))?.*
! Touchstone port assignment:
! Touchstone port 1 = CST MWS port 1 ("")
# GHz S MA R 50
0                      0.9893038              -0
0.004                  0.9899434       -9.931107
0.008                  0.9917742       -19.77507
0.012                  0.9945451       -29.44899
0.016                  0.9978805        -38.8778
0.02                    1.001336       -47.99662
0.024                   1.004464       -56.75206
0.028                   1.006869       -65.10226
0.032                    1.00827       -73.01645
0.036                   1.008522       -80.47431
0.04                     1.00764       -87.46542
0.044                    1.00579       -93.98896
0.048                   1.003265       -100.0537
0.052                    1.00044        -105.678
0.056                  0.9977186       -110.8894
0.06                   0.9954791       -115.7237
0.064                  0.9940152       -120.2233
0.068                   0.993497       -124.4338
0.072                  0.9939494        -128.401
0.076                  0.9952521       -132.1673
0.08                   0.9971656       -135.7685
0.084                   0.999371       -139.2315
0.088                   1.001524       -142.5739
0.092                   1.003304        -145.804
0.096                   1.004466       -148.9228
0.1                     1.004866       -151.9258
0.104                   1.004485       -154.8063
0.108                    1.00342       -157.5573
0.112                    1.00187       -160.1749
0.116                   1.000099       -162.6596
0.12                   0.9983965       -165.0173
0.124                  0.9970292       -167.2601
0.128                  0.9962015       -169.4045
0.132                  0.9960237       -171.4705
0.136                  0.9964979       -173.4783
0.14                   0.9975215       -175.4463
0.144                  0.9989069       -177.3888
0.148                   1.000416       -179.3144
0.152                   1.001801        178.7745
0.156                   1.002843        176.8812
0.16                    1.003385        175.0131
0.164                   1.003359        173.1808
0.168                   1.002788        171.3948
0.172                   1.001784        169.6644
0.176                   1.000524        167.9955
0.18                   0.9992223        166.3894
0.184                  0.9980962        164.8425
0.188                  0.9973265        163.3466
0.192                   0.997031        161.8899
0.196                  0.9972453        160.4593
0.2                     0.997919        159.0418
0.204                  0.9989266        157.6271
0.208                    1.00009        156.2084
0.212                   1.001211        154.7839
0.216                   1.002103        153.3565
0.22                    1.002622        151.9326
0.224                   1.002691        150.5216
0.228                   1.002307        149.1335
0.232                   1.001544        147.7775
0.236                   1.000538        146.4601
0.24                   0.9994626        145.1844
0.244                  0.9985006        143.9491
0.248                  0.9978126        142.7488
0.252                  0.9975096        141.5748
0.256                  0.9976363        140.4167
0.26                   0.9981629         139.264
0.264                   0.998992        138.1078
0.268                  0.9999773        136.9423
0.272                   1.000948        135.7658
0.276                   1.001738        134.5804
0.28                    1.002218         133.392
0.284                   1.002308        132.2087
0.288                   1.002001        131.0397
0.292                   1.001352        129.8936
0.296                   1.000477         128.777
0.3                     0.999528         127.693
0.304                  0.9986681        126.6413
0.308                  0.9980438        125.6174
0.312                  0.9977601        124.6141
0.316                  0.9978615        123.6223
0.32                   0.9983264        122.6325
0.324                  0.9990705        121.6369
0.328                  0.9999618          120.63
0.332                   1.000845        119.6103
0.336                   1.001569        118.5796
0.34                     1.00201        117.5434
0.344                   1.002095        116.5093
0.348                   1.001812        115.4858
0.352                   1.001212        114.4812
0.356                   1.000403        113.5016
0.36                   0.9995244        112.5502
0.364                  0.9987298        111.6267
0.368                  0.9981567        110.7273
0.372                  0.9979038        109.8452
0.376                  0.9980134        108.9717
0.38                   0.9984643        108.0982
0.384                  0.9991761        107.2171
0.388                   1.000023        106.3236
0.392                   1.000858        105.4161
0.396                   1.001535        104.4968
0.4                     1.001937        103.5708
0.404                   1.001996        102.6455
0.408                   1.001703        101.7294
0.412                   1.001109        100.8303
0.416                   1.000319        99.95409
0.42                   0.9994717        99.10388
0.424                  0.9987142        98.27918
0.428                  0.9981795        97.47607
0.432                  0.9979607        96.68784
0.436                  0.9980959        95.90614
0.44                   0.9985604        95.12246
0.444                  0.9992719        94.32965
0.448                   1.000105        93.52314
0.452                   1.000913        92.70173
0.456                   1.001555        91.86773
0.46                    1.001918        91.02654
0.464                   1.001938        90.18568
0.468                   1.001613        89.35347
0.472                   1.000998        88.53762
0.476                   1.000203        87.74387
0.48                   0.9993647         86.9749
0.484                  0.9986324        86.22992
0.488                  0.9981348        85.50474
0.492                  0.9979604        84.79244
0.496                  0.9981403        84.08453
0.5                    0.9986432         83.3726
0.504                  0.9993802        82.64972
0.508                   1.000221        81.91165
0.512                   1.001018        81.15766
0.516                   1.001629        80.39046
0.52                    1.001946        79.61592
0.524                   1.001913        78.84184
0.528                   1.001533        78.07669
0.532                   1.000873        77.32813
0.536                   1.000047        76.60165
0.54                   0.9991994        75.89954
0.544                  0.9984809        75.22053
0.548                  0.9980188        74.55986
0.552                  0.9978957        73.91014
0.556                  0.9981345        73.26267
0.56                   0.9986936        72.60889
0.564                  0.9994744        71.94208
0.568                   1.000339        71.25839
0.572                   1.001133        70.55761
0.576                   1.001715        69.84318
0.58                    1.001982         69.1215
0.584                   1.001883        68.40084
0.588                   1.001435        67.68997
0.592                   1.000714        66.99651
0.596                  0.9998466        66.32565
0.6                    0.9989854        65.67922
0.604                  0.9982838        65.05521
0.608                  0.9978679        64.44816
0.612                  0.9978137        63.85004
0.616                  0.9981331        63.25164
0.62                    0.998771        62.64436
0.624                  0.9996151        62.02158
0.628                   1.000516        61.38001
0.632                   1.001313        60.72014
0.636                   1.001863        60.04625
0.64                    1.002067        59.36552
0.644                   1.001886         58.6869
0.648                   1.001349        58.01944
0.652                   1.000547        57.37083
0.656                  0.9996217        56.74591
0.66                   0.9987362         56.1458
0.664                  0.9980489        55.56769
0.668                  0.9976842        55.00515
0.672                  0.9977096        54.44932
0.676                  0.9981234        53.89048
0.68                   0.9988536         53.3198
0.684                  0.9997713        52.73095
0.688                   1.000713        52.12123
0.692                   1.001511        51.49204
0.696                    1.00202        50.84864
0.7                     1.002147        50.19921
0.704                   1.001866        49.55341
0.708                   1.001222        48.92073
0.712                   1.000326        48.30879
0.716                  0.9993368        47.72199
0.72                   0.9984292        47.16063
0.724                  0.9977669        46.62077
0.728                  0.9974716        46.09486
0.732                  0.9975995        45.57309
0.736                  0.9981316        45.04508
0.74                   0.9989756        44.50183
0.744                  0.9999822        43.93734
0.748                   1.000972        43.34974
0.752                   1.001767         42.7415
0.756                   1.002223        42.11916
0.76                    1.002253          41.492
0.764                   1.001849        40.87056
0.768                   1.001075        40.26478
0.772                   1.000067        39.68218
0.776                  0.9990006        39.12657
0.78                   0.9980667         38.5972
0.784                  0.9974342        38.08883
0.788                  0.9972196        37.59259
0.792                  0.9974659        37.09749
0.796                  0.9981324         36.5925
0.8                    0.9991029        36.06847
0.804                   1.000205         35.5199
0.808                    1.00124        34.94588
0.812                   1.002021        34.35025
0.816                   1.002405        33.74094
0.82                    1.002317        33.12858
0.824                   1.001765        32.52466
0.828                   1.000844         31.9395
0.832                  0.9997106        31.38047
0.836                  0.9985669        30.85053
0.84                   0.9976177        30.34766
0.844                  0.9970366        29.86503
0.848                   0.996933        29.39217
0.852                  0.9973313        28.91684
0.856                  0.9981654        28.42724
0.86                   0.9992891        27.91421
0.864                   1.000503        27.37289
0.868                   1.001589        26.80364
0.872                    1.00235         26.2119
0.876                   1.002644        25.60732
0.88                    1.002412        25.00201
0.884                   1.001687        24.40851
0.888                   1.000592        23.83757
0.892                  0.9993175        23.29621
0.896                  0.9980886        22.78641
0.9                    0.9971278        22.30453
0.904                   0.996612        21.84188
0.908                  0.9966405        21.38617
0.912                  0.9972146        20.92372
0.916                  0.9982371        20.44201
0.92                   0.9995279        19.93193
0.924                   1.000856        19.38955
0.928                   1.001983        18.81674
0.932                   1.002701        18.22088
0.936                   1.002875        17.61357
0.94                    1.002463        17.00863
0.944                   1.001531        16.41972
0.948                   1.000236        15.85792
0.952                  0.9988033        15.32976
0.956                  0.9974899        14.83585
0.96                   0.9965344        14.37061
0.964                  0.9961156        13.92309
0.968                  0.9963178        13.47886
0.972                  0.9971134        13.02265
0.976                  0.9983672        12.54116
0.98                   0.9998582        12.02555
0.984                    1.00132        11.47304
0.988                   1.002489        10.88743
0.992                   1.003149        10.27841
0.996                   1.003174        9.659883
1                       1.002546        9.047615
1.004                   1.001367        8.456499
1.008                  0.9998364        7.897945
1.012                  0.9982236        7.377749
1.016                  0.9968172        6.894858
1.02                   0.9958749        6.441309
1.024                  0.9955751        6.003482
1.028                  0.9959826        5.564485
1.032                   0.997034        5.107256
1.036                  0.9985479        4.617755
1.04                    1.000256        4.087576
1.044                   1.001851        3.515481
1.048                   1.003042        2.907619
1.052                   1.003606        2.276446
1.056                   1.003429        1.638588
1.06                    1.002525        1.012026
1.064                   1.001041       0.4130164
1.068                  0.9992297      -0.1468046
1.072                  0.9974091      -0.6626494
1.076                  0.9959068       -1.137724
1.08                   0.9950009       -1.582963
1.084                  0.9948671       -2.015268
1.088                  0.9955438       -2.454503
1.092                  0.9969219       -2.919806
1.096                  0.9987633       -3.425998
1.1                     1.000742       -3.980818
1.104                   1.002501       -4.583539
1.108                    1.00372       -5.225058
1.112                   1.004167       -5.889608
1.116                   1.003744       -6.557245
1.12                    1.002507       -7.207369
1.124                   1.000657       -7.822059
1.128                  0.9985101       -8.389547
1.132                  0.9964453       -8.906307
1.136                  0.9948366       -9.378249
1.14                    0.993985       -9.819989
1.144                  0.9940606       -10.25245
1.148                  0.9950679       -10.69909
1.152                  0.9968406       -11.18149
1.156                  0.9990699       -11.71527
1.16                    1.001359       -12.30721
1.164                   1.003293       -12.95403
1.168                   1.004513         -13.643
1.172                   1.004782       -14.35409
1.176                   1.004025       -15.06337
1.18                    1.002347       -15.74693
1.184                   1.000021       -16.38498
1.188                  0.9974439       -16.96546
1.192                  0.9950719       -17.48663
1.196                   0.993337       -17.95788
1.2                    0.9925694       -18.39865
1.204                  0.9929313       -18.83506
1.208                  0.9943821       -19.29523
1.212                  0.9966814       -19.80387
1.216                  0.9994289       -20.37762
1.22                    1.002136         -21.022
1.224                   1.004312       -21.73043
1.228                   1.005552        -22.4855
1.232                   1.005605        -23.2618
1.236                   1.004425       -24.03019
1.24                    1.002184       -24.76244
1.244                  0.9992447       -25.43613
1.248                  0.9961106       -26.03883
1.252                  0.9933374       -26.57091
1.256                  0.9914364       -27.04637
1.26                   0.9907766       -27.49094
1.264                  0.9915114       -27.93775
1.268                  0.9935411       -28.42112
1.272                  0.9965261       -28.96998
1.276                  0.9999451       -29.60232
1.28                    1.003186         -30.322
1.284                   1.005654       -31.11809
1.288                   1.006878       -31.96686
1.292                   1.006591       -32.83569
1.296                   1.004784        -33.6882
1.3                     1.001713       -34.49011
1.304                  0.9978701       -35.21502
1.308                  0.9939043       -35.84957
1.312                  0.9905183       -36.39686
1.316                  0.9883399       -36.87718
1.32                   0.9878025       -37.32536
1.324                  0.9890527       -37.78479
1.328                  0.9919125       -38.29917
1.332                  0.9959034       -38.90395
1.336                   1.000327       -39.61961
1.34                    1.004391       -40.44806
1.344                   1.007343       -41.37248
1.348                   1.008605       -42.36038
1.352                   1.007872       -43.36872
1.356                   1.005175       -44.35041
1.36                    1.000886       -45.26164
1.364                  0.9956763       -46.06922
1.368                  0.9904193       -46.75732
1.372                  0.9860457       -47.33211
1.376                  0.9833769       -47.82294
1.38                    0.982962       -48.27867
1.384                  0.9849563       -48.75921
1.388                  0.9890724       -49.32388
1.392                  0.9946193        -50.0195
1.396                   1.000621       -50.87156
1.4                     1.005984       -51.87988
1.404                   1.009691        -53.0193
1.408                   1.010965       -54.24396
1.412                   1.009409       -55.49426
1.416                   1.005083        -56.7051
1.42                   0.9985258        -57.8153
1.424                  0.9906961       -58.77761
1.428                  0.9828515       -59.56861
1.432                  0.9763502       -60.19673
1.436                  0.9724076       -60.70547
1.44                   0.9718469        -61.1693
1.444                  0.9749047        -61.6808
1.448                  0.9811446       -62.33232
1.452                  0.9895109       -63.19684
1.456                  0.9985065       -64.31424
1.46                    1.006448       -65.68551
1.464                   1.011744       -67.27449
1.468                   1.013142       -69.01449
1.472                   1.009937       -70.81743
1.476                   1.002101       -72.58407
1.48                   0.9903518       -74.21578
1.484                  0.9761211       -75.62878
1.488                  0.9614265       -76.77166
1.492                  0.9486044       -77.64447
1.496                  0.9399143         -78.314
1.5                     0.937056       -78.91632
1.504                  0.9407151       -79.63865
1.508                  0.9502866       -80.68279
1.512                  0.9638765       -82.22333
1.516                  0.9785726       -84.37787
1.52                   0.9908683       -87.19803
1.524                  0.9971054       -90.67774
1.528                  0.9938449       -94.76953
1.532                   0.978134       -99.40049
1.536                  0.9476792       -104.4834
1.54                   0.9009453        -109.922
1.544                  0.8372017       -115.6097
1.548                  0.7565325       -121.4202
1.552                  0.6598242       -127.1827
1.556                  0.5487545       -132.6198
1.56                   0.4258454       -137.1659
1.564                  0.2948743       -139.2854
1.568                  0.1638482       -132.5832
1.572                  0.0825471       -77.74723
1.576                   0.169784       -26.52533
1.58                   0.3013304       -20.64934
1.584                  0.4322464       -22.99739
1.588                  0.5549121       -27.66814
1.592                  0.6655922       -33.20801
1.596                  0.7617588       -39.07286
1.6                    0.8417176       -44.99221
1.604                  0.9045648       -50.79735
1.608                  0.9502045       -56.36166
1.612                  0.9793672       -61.57673
1.616                  0.9936061       -66.34306
1.62                   0.9952582       -70.56889
1.624                  0.9873529       -74.17578
1.628                  0.9734443       -77.11071
1.632                   0.957341       -79.36383
1.636                  0.9427198        -80.9872
1.64                    0.932649       -82.10543
1.644                  0.9291217       -82.90685
1.648                  0.9327476       -83.61085
1.652                  0.9427411       -84.42079
1.656                  0.9572197       -85.48297
1.66                   0.9736994       -86.86709
1.664                  0.9896173       -88.57005
1.668                   1.002756       -90.53343
1.672                   1.011524       -92.66452
1.676                     1.0151       -94.85478
1.68                    1.013462       -96.99438
1.684                   1.007339       -98.98393
1.688                  0.9980713       -100.7453
1.692                  0.9874218       -102.2317
1.696                  0.9773057       -103.4368
1.7                    0.9694906       -104.3985
1.704                  0.9652959       -105.1956
1.708                  0.9653617       -105.9336
1.712                  0.9695506       -106.7235
1.716                  0.9770106       -107.6584
1.72                     0.98638       -108.7971
1.724                  0.9960676       -110.1575
1.728                   1.004538       -111.7187
1.732                   1.010548       -113.4302
1.736                   1.013311       -115.2228
1.74                     1.01258       -117.0196
1.744                   1.008651       -118.7462
1.748                   1.002307       -120.3402
1.752                    0.99469       -121.7599
1.756                   0.987123       -122.9911
1.76                    0.980899       -124.0506
1.764                  0.9770614       -124.9856
1.768                  0.9762214       -125.8647
1.772                  0.9784539       -126.7656
1.776                  0.9832997       -127.7593
1.78                   0.9898715       -128.8968
1.784                  0.9970321       -130.2014
1.788                   1.003602       -131.6674
1.792                   1.008552       -133.2637
1.796                   1.011157       -134.9416
1.8                     1.011087       -136.6423
1.804                    1.00844       -138.3059
1.808                   1.003719       -139.8795
1.812                  0.9977474       -141.3245
1.816                  0.9915427       -142.6231
1.82                   0.9861507       -143.7814
1.824                  0.9824722       -144.8301
1.828                  0.9811059       -145.8194
1.832                  0.9822446       -146.8095
1.836                  0.9856475       -147.8599
1.84                   0.9906948       -149.0171
1.844                   0.996511       -150.3076
1.848                   1.002125       -151.7343
1.852                   1.006634       -153.2784
1.856                   1.009343       -154.9035
1.86                    1.009865       -156.5623
1.864                   1.008166        -158.204
1.868                   1.004567       -159.7811
1.872                  0.9996867       -161.2565
1.876                  0.9943482       -162.6092
1.88                    0.989446       -163.8381
1.884                   0.985799       -164.9629
1.888                  0.9840097       -166.0217
1.892                  0.9843583        -167.064
1.896                  0.9867563       -168.1417
1.9                    0.9907679       -169.2989
1.904                  0.9956959       -170.5648
1.908                    1.00071       -171.9487
1.912                   1.004988       -173.4403
1.916                    1.00785       -175.0122
1.92                    1.008859       -176.6255
1.924                    1.00788       -178.2354
1.928                   1.005098        -179.798
1.932                   1.000984        178.7234
1.936                  0.9962251        177.3526
1.94                   0.9916132        176.0964
1.944                  0.9879167        174.9431
1.948                  0.9857504        173.8632
1.952                  0.9854669         172.815
1.956                  0.9870957        171.7515
1.96                   0.9903402        170.6298
1.964                  0.9946356        169.4184
1.968                  0.9992533        168.1027
1.972                   1.003427        166.6862
1.976                   1.006479         165.189
1.98                    1.007927        163.6441
1.984                   1.007551        162.0916
1.988                   1.005427        160.5731
1.992                   1.001913        159.1252
1.996                  0.9975902        157.7744
2                      0.9931758        156.5323
2.004                   0.989406        155.3933
2.008                  0.9869115        154.3348
2.012                  0.9861079        153.3206
2.016                  0.9871212        152.3075
2.02                   0.9897657        151.2531
2.024                  0.9935812        150.1239
2.028                  0.9979159        148.9005
2.032                   1.002043        147.5808
2.036                   1.005281        146.1794
2.04                    1.007103         144.724
2.044                   1.007219        143.2515
2.048                   1.005613        141.8019
2.052                   1.002549        140.4122
2.056                  0.9985297        139.1114
2.06                   0.9942173        137.9152
2.064                  0.9903295        136.8233
2.068                  0.9875178        135.8182
2.072                  0.9862564        134.8683
2.076                  0.9867545        133.9328
2.08                     0.98892        132.9694
2.084                  0.9923755         131.942
2.088                  0.9965285        130.8273
2.092                   1.000676        129.6181
2.096                   1.004124         128.324
2.1                     1.006301         126.969
2.104                   1.006848        125.5874
2.108                   1.005669        124.2182
2.112                   1.002951        122.8998
2.116                  0.9991302        121.6634
2.12                   0.9948324        120.5289
2.124                   0.990769        119.5005
2.128                  0.9876223        118.5653
2.132                  0.9859259         117.695
2.136                  0.9859693        116.8503
2.14                   0.9877433        115.9884
2.144                  0.9909405        115.0702
2.148                  0.9950111        114.0681
2.152                   0.999261        112.9701
2.156                   1.002971        111.7815
2.16                    1.005515        110.5231
2.164                    1.00646        109.2275
2.168                   1.005632        107.9339
2.172                   1.003145        106.6822
2.176                  0.9993857        105.5074
2.18                   0.9949554        104.4336
2.184                  0.9905789        103.4697
2.188                  0.9869864        102.6071
2.192                  0.9847879        101.8202
2.196                   0.984363        101.0703
2.2                     0.985789        100.3124
2.204                  0.9888235        99.50335
2.208                  0.9929466        98.61007
2.212                  0.9974527        97.61505
2.216                   1.001572        96.51894
2.22                    1.004599        95.33959
2.224                   1.006005        94.10873
2.228                    1.00552        92.86698
2.232                   1.003178        91.65773
2.236                  0.9993165        90.52082
2.24                   0.9945284        89.48643
2.244                   0.989577        88.56963
2.248                  0.9852756        87.76686
2.252                    0.98235        87.05517
2.256                  0.9813084        86.39513
2.26                   0.9823425        85.73739
2.264                  0.9852868        85.03179
2.268                  0.9896423         84.2367
2.272                  0.9946621         83.3264
2.276                  0.9994793        82.29507
2.28                     1.00325        81.15714
2.284                    1.00529        79.94423
2.288                   1.005179        78.70025
2.292                   1.002833        77.47495
2.296                  0.9985203        76.31718
2.3                    0.9928404        75.26746
2.304                  0.9866401         74.3513
2.308                  0.9808927        73.57347
2.312                  0.9765406        72.91487
2.316                  0.9743291         72.3338
2.32                   0.9746608        71.77174
2.324                  0.9775065        71.16372
2.328                  0.9823931        70.45045
2.332                  0.9884772        69.58925
2.336                  0.9946823        68.56118
2.34                   0.9998714        67.37332
2.344                   1.003025         66.0568
2.348                   1.003397        64.66181
2.352                   1.000627        63.25095