! TOUCHSTONE file generated by CST MICROWAVE STUDIO
! Date and time: Tue Jun  7 21:57:02 2022
! Project name: AppElm_antenne_patch_FR4.cst
! Parameters = {L=45; W=58.5; e=0.035; h=1.6; lambda=0.190476; ls=114; w0=1.6; w1=0.533; ws=120; y0=20; y1=23.81}
! Header version: 2018
! Port assignment regex: !\s*Touchstone port\s*([0-9]+)\s*=\s*(CST MWS port|CST DS port)\s*([0-9]+|Zmin|Zmax)\s*\(\"(.*)\"\)(\s*mode\s*([0-9]+))?.*
! Touchstone port assignment:
! Touchstone port 1 = CST MWS port 1 ("")
# GHz S MA R 50
0                      0.9892709              -0
0.004                  0.9899117       -9.930272
0.008                  0.9917456       -19.77344
0.012                  0.9945217       -29.44665
0.016                  0.9978641       -38.87485
0.02                    1.001328       -47.99324
0.024                   1.004465       -56.74841
0.028                   1.006881       -65.09853
0.032                    1.00829       -73.01285
0.036                    1.00855       -80.47102
0.04                    1.007675        -87.4626
0.044                   1.005828       -93.98675
0.048                   1.003303       -100.0522
0.052                   1.000473       -105.6771
0.056                  0.9977448       -110.8891
0.06                   0.9954946       -115.7239
0.064                  0.9940181       -120.2237
0.068                  0.9934872       -124.4341
0.072                  0.9939281       -128.4011
0.076                  0.9952224       -132.1669
0.08                   0.9971314       -135.7674
0.084                  0.9993373       -139.2297
0.088                   1.001495       -142.5715
0.092                   1.003285       -145.8012
0.096                    1.00446       -148.9197
0.1                     1.004874       -151.9228
0.104                   1.004506       -154.8036
0.108                   1.003452       -157.5552
0.112                   1.001909       -160.1737
0.116                   1.000139       -162.6592
0.12                   0.9984318       -165.0178
0.124                  0.9970548       -167.2613
0.128                  0.9962136       -169.4063
0.132                  0.9960204       -171.4724
0.136                  0.9964799         -173.48
0.14                    0.997491       -175.4476
0.144                  0.9988687       -177.3893
0.148                   1.000376        -179.314
0.152                   1.001765        178.7757
0.156                   1.002816         176.883
0.16                    1.003372        175.0153
0.164                   1.003362         173.183
0.168                   1.002806        171.3967
0.172                   1.001814        169.6657
0.176                   1.000562         167.996
0.18                   0.9992623        166.3889
0.184                  0.9981316        164.8411
0.188                  0.9973515        163.3445
0.192                  0.9970416        161.8874
0.196                  0.9972399        160.4566
0.2                    0.9978983        159.0394
0.204                  0.9988943        157.6253
0.208                   1.000052        156.2074
0.212                   1.001173        154.7839
0.216                   1.002071        153.3572
0.22                    1.002602         151.934
0.224                   1.002686        150.5233
0.228                   1.002319        149.1351
0.232                   1.001572        147.7785
0.236                   1.000577        146.4604
0.24                   0.9995071        145.1837
0.244                  0.9985435        143.9474
0.248                  0.9978466        142.7461
0.252                  0.9975296        141.5715
0.256                  0.9976387        140.4131
0.26                   0.9981473        139.2605
0.264                  0.9989612        138.1048
0.268                  0.9999358        136.9402
0.272                   1.000903        135.7646
0.276                   1.001697        134.5802
0.28                    1.002187        133.3926
0.284                   1.002293        132.2099
0.288                   1.002004         131.041
0.292                   1.001373        129.8946
0.296                   1.000513        128.7773
0.3                    0.9995724        127.6924
0.304                  0.9987136        126.6395
0.308                  0.9980831        125.6146
0.312                   0.997786        124.6105
0.316                  0.9978695        123.6182
0.32                   0.9983149        122.6284
0.324                   0.999041        121.6332
0.328                  0.9999194        120.6272
0.332                   1.000797        119.6085
0.336                   1.001523         118.579
0.34                    1.001973        117.5437
0.344                   1.002074        116.5103
0.348                    1.00181        115.4871
0.352                   1.001231        114.4822
0.356                   1.000439        113.5019
0.36                   0.9995715        112.5496
0.364                  0.9987803        111.6249
0.368                  0.9982021        110.7244
0.372                  0.9979361        109.8412
0.376                   0.998027        108.9672
0.38                   0.9984567        108.0935
0.384                  0.9991484        107.2129
0.388                  0.9999802        106.3202
0.392                   1.000807        105.4139
0.396                   1.001484        104.4958
0.4                     1.001896        103.5709
0.404                   1.001972        102.6465
0.408                     1.0017        101.7308
0.412                   1.001129        100.8315
0.416                   1.000359        99.95464
0.42                   0.9995255        99.10336
0.424                  0.9987732        98.27735
0.428                  0.9982343         97.4729
0.432                  0.9980023        96.68354
0.436                  0.9981175        95.90111
0.44                   0.9985587        95.11725
0.444                  0.9992475        94.32481
0.448                   1.000063        93.51918
0.452                    1.00086        92.69898
0.456                   1.001501        91.86633
0.46                    1.001873         91.0264
0.464                   1.001911        90.18651
0.468                   1.001609        89.35477
0.472                   1.001019        88.53882
0.476                   1.000246        87.74436
0.48                   0.9994232        86.97424
0.484                  0.9986969        86.22787
0.488                   0.998195        85.50123
0.492                  0.9980063        84.78767
0.496                  0.9981643        84.07897
0.5                    0.9986412        83.36684
0.504                  0.9993529        82.64437
0.508                   1.000174        81.90728
0.512                   1.000958        81.15464
0.516                   1.001569        80.38899
0.52                    1.001896        79.61588
0.524                   1.001882        78.84289
0.528                   1.001529        78.07829
0.532                   1.000896        77.32963
0.536                   1.000095        76.60241
0.54                   0.9992656        75.89902
0.544                  0.9985545        75.21842
0.548                  0.9980878        74.55611
0.552                   0.997949        73.90503
0.556                  0.9981634        73.25665
0.56                   0.9986939        72.60262
0.564                  0.9994467        71.93627
0.568                   1.000288        71.25366
0.572                   1.001069        70.55441
0.576                   1.001651        69.84167
0.58                    1.001929        69.12158
0.584                   1.001853        68.40211
0.588                   1.001433        67.69183
0.592                   1.000743        66.99824
0.596                   0.999903        66.32655
0.6                    0.9990609         65.6787
0.604                  0.9983668        65.05292
0.608                  0.9979453        64.44408
0.612                  0.9978731        63.84444
0.616                   0.998165        63.24511
0.62                   0.9987708        62.63762
0.624                  0.9995841        62.01542
0.628                   1.000461         61.3751
0.632                   1.001244          60.717
0.636                   1.001796        60.04501
0.64                    1.002014        59.36604
0.644                   1.001859        58.68871
0.648                   1.001355        58.02185
0.652                   1.000588        57.37302
0.656                  0.9996936        56.74706
0.66                   0.9988292        56.14531
0.664                  0.9981497        55.56516
0.668                  0.9977777        55.00059
0.672                  0.9977821        54.44309
0.676                  0.9981646        53.88322
0.68                    0.998859        53.31235
0.684                  0.9997428        52.72418
0.688                   1.000659         52.1159
0.692                   1.001443        51.48864
0.696                   1.001954        50.84735
0.7                     1.002098        50.19981
0.704                   1.001847        49.55536
0.708                    1.00124        48.92322
0.712                   1.000383        48.31091
0.716                  0.9994264        47.72285
0.72                   0.9985401        47.15955
0.724                  0.9978838         46.6174
0.728                  0.9975777        46.08925
0.732                  0.9976797        45.56568
0.736                  0.9981753        45.03664
0.74                   0.9989785        44.49332
0.744                  0.9999475        43.92976
0.748                   1.000909        43.34389
0.752                   1.001692        42.73792
0.756                   1.002152        42.11795
0.76                    1.002205        41.49288
0.764                   1.001836        40.87286
0.768                   1.001105        40.26755
0.772                    1.00014        39.68438
0.776                  0.9991102        39.12721
0.78                   0.9981987        38.59555
0.784                  0.9975705        38.08456
0.788                  0.9973413         37.5858
0.792                  0.9975564        37.08875
0.796                  0.9981808         36.5827
0.8                    0.9991054        36.05874
0.804                   1.000166        35.51131
0.808                   1.001172        34.93932
0.812                   1.001941        34.34625
0.816                   1.002333        33.73957
0.82                    1.002272        33.12943
0.824                   1.001762        32.52691
0.828                   1.000889        31.94206
0.832                  0.9998035        31.38215
0.836                  0.9986975        30.85027
0.84                   0.9977695        30.34469
0.844                  0.9971885        29.85907
0.848                  0.9970638        29.38344
0.852                  0.9974231        28.90607
0.856                  0.9982069        28.41552
0.86                   0.9992781        27.90281
0.864                   1.000446        27.36304
0.868                   1.001502        26.79628
0.872                   1.002253        26.20754
0.876                    1.00256        25.60594
0.88                    1.002362        25.00305
0.884                   1.001687        24.41098
0.888                   1.000648        23.84018
0.892                  0.9994267        23.29761
0.896                  0.9982383        22.78542
0.9                    0.9972977        22.30036
0.904                  0.9967781        21.83428
0.908                  0.9967785        21.37551
0.912                  0.9973054        20.91093
0.916                  0.9982693        20.42837
0.92                   0.9995008        19.91892
0.924                    1.00078         19.3785
0.928                   1.001875        18.80865
0.932                   1.002587        18.21623
0.936                    1.00278        17.61221
0.94                    1.002412        17.00983
0.944                   1.001538        16.42225
0.948                   1.000306        15.86029
0.952                  0.9989314        15.33043
0.956                  0.9976593        14.83354
0.96                   0.9967207        14.36454
0.964                  0.9962904        13.91313
0.968                  0.9964542        13.46557
0.972                   0.997191        13.00721
0.976                  0.9983751        12.52514
0.98                   0.9997982        12.01063
0.984                   1.001206        11.46073
0.988                   1.002344        10.87877
0.992                   1.003003        10.27382
0.996                   1.003056        9.659053
1                       1.002482        9.049568
1.004                   1.001372        8.459735
1.008                   0.999916         7.90069
1.012                  0.9983682        7.378257
1.016                  0.9970055        6.891727
1.02                   0.9960773        6.433754
1.024                  0.9957589        5.991494
1.028                  0.9961174        5.548862
1.032                  0.9970978        5.089462
1.036                   0.998531        4.599661
1.04                    1.000163        4.071117
1.044                     1.0017        3.502309
1.048                   1.002863        2.898811
1.052                   1.003433         2.27231
1.056                   1.003295        1.638604
1.06                    1.002458        1.014918
1.064                   1.001058       0.4169505
1.068                  0.9993312      -0.1439171
1.072                  0.9975816       -0.662792
1.076                  0.9961232        -1.14241
1.08                   0.9952249       -1.592933
1.084                  0.9950602       -2.030325
1.088                  0.9956719        -2.47352
1.092                  0.9969618        -2.94092
1.096                   0.998707       -3.446945
1.1                     1.000598       -3.999347
1.104                   1.002295         -4.5978
1.108                   1.003487       -5.233992
1.112                   1.003949       -5.892968
1.116                   1.003581       -6.555879
1.12                    1.002428       -7.202917
1.124                   1.000679       -7.816813
1.128                  0.9986322        -8.38595
1.132                  0.9966474       -8.906673
1.136                  0.9950838        -9.38424
1.14                   0.9942334       -9.832298
1.144                  0.9942647       -10.27064
1.148                  0.9951888       -10.72163
1.152                  0.9968537       -11.20604
1.156                  0.9989696       -11.73911
1.16                    1.001159       -12.32773
1.164                   1.003027       -12.96917
1.168                   1.004225       -13.65165
1.172                   1.004522       -14.35628
1.176                   1.003837       -15.06025
1.18                    1.002266       -15.74065
1.184                   1.000062       -16.37833
1.188                  0.9976015       -16.96145
1.192                  0.9953181        -17.4879
1.196                  0.9936272       -17.96627
1.2                    0.9928487       -18.41474
1.204                   0.993145       -18.85805
1.208                  0.9944857       -19.32303
1.212                  0.9966488       -19.83347
1.216                  0.9992577       -20.40567
1.22                    1.001848       -21.04537
1.224                   1.003951       -21.74682
1.228                   1.005173       -22.49375
1.232                    1.00527        -23.2622
1.236                   1.004188       -24.02436
1.24                    1.002083       -24.75317
1.244                  0.9992962       -25.42695
1.248                  0.9963026       -26.03342
1.252                  0.9936323       -26.57248
1.256                  0.9917757       -27.05698
1.26                   0.9910917       -27.51109
1.264                   0.991735       -27.96618
1.268                  0.9936208         -28.455
1.272                  0.9964337       -29.00543
1.276                   0.999682       -29.63518
1.28                    1.002784       -30.34848
1.284                    1.00517       -31.13551
1.288                   1.006384       -31.97408
1.292                   1.006163       -32.83328
1.296                   1.004489       -33.67844
1.3                     1.001595       -34.47668
1.304                  0.9979435       -35.20246
1.308                  0.9941503       -35.84256
1.312                  0.9908843       -36.39936
1.316                  0.9887482       -36.89163
1.32                   0.9881629        -37.3521
1.324                  0.9892798       -37.82186
1.328                   0.991941       -38.34262
1.332                   0.995701        -38.9486
1.336                  0.9999015       -39.65999
1.34                    1.003788       -40.47936
1.344                    1.00664        -41.3914
1.348                   1.007899       -42.36566
1.352                   1.007262       -43.36133
1.356                   1.004747       -44.33351
1.36                    1.000697       -45.24022
1.364                  0.9957448       -46.04939
1.368                  0.9907155       -46.74537
1.372                  0.9864958       -47.33338
1.376                  0.9838731       -47.84064
1.38                   0.9833809       -48.31309
1.384                  0.9851809       -48.80745
1.388                  0.9890149       -49.38031
1.392                   0.994238       -50.07686
1.396                  0.9999287       -50.92231
1.4                     1.005048       -51.91753
1.404                   1.008619       -53.03943
1.408                   1.009892       -54.24496
1.412                   1.008473       -55.47754
1.416                   1.004406       -56.67509
1.42                   0.9981874       -57.77904
1.424                  0.9907213       -58.74391
1.428                  0.9831977       -59.54676
1.432                  0.9769076       -60.19479
1.436                  0.9730132       -60.72845
1.44                   0.9723103       -61.21767
1.444                  0.9750433          -61.75
1.448                  0.9808184       -62.41344
1.452                  0.9886506       -63.27838
1.456                  0.9971267       -64.38426
1.46                    1.004646       -65.73368
1.464                   1.009683       -67.29355
1.468                    1.01103       -69.00117
1.472                   1.007997        -70.7729
1.476                   1.000537       -72.51412
1.48                   0.9893151       -74.13065
1.484                  0.9756795       -75.54256
1.488                  0.9615361       -76.70068
1.492                  0.9490968        -77.6047
1.496                  0.9405041       -78.31712
1.5                    0.9373767       -78.96588
1.504                  0.9403805       -79.72766
1.508                  0.9489623       -80.79426
1.512                  0.9613396       -82.33354
1.516                  0.9747449        -84.4608
1.52                   0.9858207       -87.22885
1.524                  0.9910403       -90.63465
1.528                  0.9870683       -94.63392
1.532                   0.971025       -99.15585
1.536                  0.9406609       -104.1137
1.54                   0.8944602       -109.4096
1.544                  0.8316922       -114.9323
1.548                  0.7524267       -120.5469
1.552                  0.6575316       -126.0663
1.556                  0.5486785       -131.1828
1.56                   0.4284375         -135.27
1.564                  0.3008197       -136.6687
1.568                   0.174718        -128.997
1.572                 0.09680651       -81.39649
1.576                  0.1705448       -31.69754
1.58                   0.2963426       -23.40976
1.584                  0.4242994       -24.68942
1.588                  0.5451054       -28.77833
1.592                  0.6546321       -33.94743
1.596                  0.7502262       -39.55091
1.6                    0.8301372        -45.2737
1.604                  0.8934186       -50.92516
1.608                   0.939926       -56.36743
1.612                  0.9703265       -61.48649
1.616                  0.9860916       -66.18063
1.62                   0.9894551       -70.35803
1.624                  0.9833227       -73.94138
1.628                  0.9711075       -76.87881
1.632                  0.9564701       -79.16009
1.636                   0.942952       -80.83363
1.64                   0.9335268       -82.01616
1.644                  0.9301592       -82.88449
1.648                   0.933512        -83.6458
1.652                  0.9429225       -84.49413
1.656                  0.9566692       -85.57186
1.66                   0.9724284       -86.95001
1.664                  0.9877678       -88.63032
1.668                   1.000557       -90.56068
1.672                   1.009245       -92.65478
1.676                   1.013009       -94.80978
1.68                    1.011789       -96.92064
1.684                   1.006245       -98.89183
1.688                  0.9976338       -100.6478
1.692                  0.9876175       -102.1428
1.696                  0.9780176       -103.3693
1.7                    0.9705248       -104.3619
1.704                  0.9664154       -105.1938
1.708                  0.9663294       -105.9645
1.712                  0.9701725       -106.7788
1.716                   0.977169       -107.7265
1.72                   0.9860474       -108.8652
1.724                  0.9953038       -110.2139
1.728                   1.003471       -111.7551
1.732                    1.00935       -113.4421
1.736                   1.012168       -115.2097
1.74                    1.011663       -116.9848
1.744                   1.008094       -118.6962
1.748                   1.002186       -120.2839
1.752                  0.9950119       -121.7072
1.756                  0.9878266       -122.9514
1.76                   0.9818618       -124.0317
1.764                  0.9781217       -124.9914
1.768                  0.9772062       -125.8951
1.772                  0.9792105        -126.816
1.776                  0.9837222        -127.822
1.78                    0.989917       -128.9625
1.784                  0.9967235       -130.2611
1.788                    1.00302       -131.7136
1.792                   1.007819        -133.292
1.796                   1.010415       -134.9504
1.8                     1.010474       -136.6332
1.804                   1.008072       -138.2834
1.808                    1.00367       -139.8499
1.812                  0.9980418       -141.2956
1.816                  0.9921467       -142.6026
1.82                   0.9869807       -143.7758
1.824                  0.9834071       -144.8435
1.828                   0.982009       -145.8524
1.832                  0.9829876       -146.8596
1.836                   0.986133       -147.9214
1.84                    0.990873       -149.0828
1.844                  0.9963854         -150.37
1.848                    1.00175       -151.7869
1.852                   1.006102       -153.3165
1.856                   1.008772       -154.9251
1.86                    1.009372        -156.568
1.864                   1.007859       -158.1969
1.868                   1.004519       -159.7663
1.872                  0.9999319       -161.2404
1.876                   0.994872       -162.5986
1.88                   0.9901887       -163.8388
1.884                  0.9866646       -164.9792
1.888                  0.9848825       -166.0552
1.892                  0.9851231       -167.1133
1.896                  0.9873185       -168.2026
1.9                    0.9910701       -169.3656
1.904                  0.9957259       -170.6306
1.908                   1.000501       -172.0076
1.912                   1.004612       -173.4877
1.916                   1.007404       -175.0455
1.92                    1.008449       -176.6445
1.924                   1.007604       -178.2421
1.928                   1.005032       -179.7964
1.932                    1.00117        178.7277
1.936                  0.9966622        177.3538
1.94                   0.9922592        176.0889
1.944                   0.988694        174.9225
1.948                  0.9865587        173.8275
1.952                  0.9862012        172.7647
1.956                  0.9876641        171.6896
1.96                   0.9906802        170.5613
1.964                  0.9947243        169.3493
1.968                  0.9991098        168.0387
1.972                   1.003108         166.632
1.976                    1.00607        165.1476
1.98                    1.007524        163.6162
1.984                   1.007249         162.076
1.988                   1.005305        160.5664
1.992                   1.002018        159.1227
1.996                  0.9979329        157.7706
2                      0.9937282        156.5217
2.004                  0.9901038        155.3715
2.008                  0.9876657        154.2991
2.012                  0.9868191        153.2709
2.016                  0.9876978         152.246
2.02                   0.9901402        151.1841
2.024                  0.9937204        150.0526
2.028                  0.9978271        148.8326
2.032                   1.001771        147.5211
2.036                   1.004898        146.1311
2.04                    1.006701        144.6885
2.044                   1.006889        143.2281
2.048                   1.005433        141.7878
2.052                   1.002575        140.4032
2.056                  0.9987792        139.1024
2.06                   0.9946721        137.9008
2.064                   0.990935         136.799
2.068                  0.9881927        135.7811
2.072                  0.9869057        134.8177
2.076                   0.987287        133.8703
2.08                   0.9892636        132.8987
2.084                  0.9924902        131.8682
2.088                  0.9964131        130.7559
2.092                   1.000367        129.5541
2.096                   1.003689        128.2709
2.1                     1.005826        126.9286
2.104                   1.006424        125.5593
2.108                    1.00538        124.2002
2.112                   1.002854        122.8879
2.116                   0.999254        121.6527
2.12                   0.9951654         120.514
2.124                  0.9912644        119.4767
2.128                  0.9882031        118.5293
2.132                   0.986499        117.6455
2.136                  0.9864414        116.7887
2.14                   0.9880372        115.9179
2.144                  0.9910092        114.9957
2.148                  0.9948457        113.9951
2.152                  0.9988913        112.9037
2.156                   1.002459        111.7257
2.16                    1.004946        110.4799
2.164                   1.005926        109.1969
2.168                   1.005219        107.9139
2.172                   1.002918        106.6691
2.176                  0.9993765        105.4963
2.18                   0.9951591        104.4191
2.184                  0.9909525        103.4467
2.188                   0.987455        102.5721
2.192                  0.9852571        101.7717
2.196                  0.9847353        101.0091
2.2                    0.9859813        100.2417
2.204                  0.9887822        99.42811
2.208                  0.9926569        98.53602
2.212                  0.9969409        97.54769
2.216                     1.0009        96.46255
2.22                    1.003855        95.29663
2.224                   1.005286        94.07951
2.228                   1.004919        92.84966
2.232                   1.002768        91.64853
2.236                  0.9991368        90.51462
2.24                     0.99458        89.47748
2.244                  0.9898193        88.55246
2.248                  0.9856321        87.73729
2.252                  0.9827204        87.01113
2.256                  0.9815855        86.33715
2.26                    0.982432        85.66867
2.264                  0.9851244        84.95756
2.268                  0.9892049        84.16321
2.272                  0.9939725        83.25978
2.276                  0.9986009        82.24032
2.28                    1.002277        81.11727
2.284                   1.004329        79.91992
2.288                   1.004335        78.68972
2.292                   1.002191        77.47435
2.296                   0.998132        76.32092
2.3                    0.9927129        75.26913
2.304                  0.9867335         74.3446
2.308                  0.9811243        73.55328
2.312                  0.9767967        72.87837
2.316                  0.9744836         72.2812
2.32                   0.9745981        71.70642
2.324                  0.9771426        71.09175
2.328                  0.9816928         70.3794
2.332                  0.9874597         69.5268
2.336                  0.9934184        68.51375
2.34                   0.9984718        67.34504
2.344                   1.001622        66.04903
2.348                   1.002125        64.67297
2.352                  0.9996006        63.27671