! TOUCHSTONE file generated by CST MICROWAVE STUDIO
! Date and time: Tue Jun  7 21:57:08 2022
! Project name: AppElm_antenne_patch_FR4.cst
! Parameters = {L=45; W=58.5; e=0.035; h=1.6; lambda=0.190476; ls=150; w0=1.6; w1=0.533; ws=120; y0=20; y1=23.81}
! Header version: 2018
! Port assignment regex: !\s*Touchstone port\s*([0-9]+)\s*=\s*(CST MWS port|CST DS port)\s*([0-9]+|Zmin|Zmax)\s*\(\"(.*)\"\)(\s*mode\s*([0-9]+))?.*
! Touchstone port assignment:
! Touchstone port 1 = CST MWS port 1 ("")
# GHz S MA R 50
0                      0.9895468              -0
0.004                  0.9901779       -9.935295
0.008                  0.9919836       -19.78318
0.012                  0.9947138        -29.4605
0.016                  0.9979951       -38.89195
0.02                    1.001386       -48.01248
0.024                   1.004443        -56.7685
0.028                   1.006778       -65.11805
0.032                   1.008112       -73.03039
0.036                   1.008309       -80.48525
0.04                    1.007391       -87.47244
0.044                   1.005529       -93.99143
0.048                   1.003018       -100.0515
0.052                   1.000233       -105.6714
0.056                  0.9975773       -110.8794
0.06                   0.9954207       -115.7118
0.064                  0.9940478       -120.2111
0.068                  0.9936175       -124.4232
0.072                  0.9941423       -128.3937
0.076                  0.9954922       -132.1647
0.08                   0.9974203       -135.7712
0.084                  0.9996052       -139.2395
0.088                   1.001704       -142.5864
0.092                   1.003406       -145.8195
0.096                   1.004474       -148.9394
0.1                     1.004779       -151.9416
0.104                   1.004315       -154.8191
0.108                   1.003192       -157.5657
0.112                   1.001618       -160.1778
0.116                  0.9998611       -162.6568
0.12                   0.9982087       -165.0097
0.124                  0.9969209        -167.249
0.128                  0.9961894       -169.3921
0.132                  0.9961097       -171.4589
0.136                  0.9966681       -173.4698
0.14                   0.9977481       -175.4425
0.144                  0.9991531       -177.3906
0.148                   1.000642       -179.3217
0.152                   1.001969        178.7626
0.156                   1.002925        176.8662
0.16                    1.003368        174.9974
0.164                   1.003244        173.1665
0.168                   1.002593        171.3841
0.172                   1.001539        169.6589
0.176                   1.000269        167.9959
0.18                   0.9989998        166.3955
0.184                  0.9979426        164.8532
0.188                  0.9972683        163.3599
0.192                   0.997079        161.9035
0.196                  0.9973928        160.4707
0.2                    0.9981432        159.0489
0.204                  0.9991917        157.6285
0.208                   1.000354        156.2037
0.212                   1.001431        154.7736
0.216                   1.002244         153.342
0.22                    1.002662        151.9162
0.224                   1.002623        150.5057
0.228                   1.002145        149.1204
0.232                   1.001315         147.769
0.236                   1.000281        146.4575
0.24                   0.9992215        145.1879
0.244                  0.9983158        143.9577
0.248                  0.9977152        142.7608
0.252                  0.9975161        141.5878
0.256                  0.9977447        140.4283
0.26                    0.998354        139.2718
0.264                  0.9992323        138.1103
0.268                   1.000224        136.9387
0.272                   1.001157        135.7565
0.276                   1.001874        134.5668
0.28                    1.002254        133.3761
0.284                   1.002236         132.193
0.288                   1.001831        131.0268
0.292                   1.001112        129.8855
0.296                   1.000206        128.7749
0.3                    0.9992701        127.6972
0.304                  0.9984675         126.651
0.308                  0.9979344        125.6308
0.312                  0.9977605        124.6289
0.316                  0.9979722        123.6357
0.32                   0.9985286        122.6421
0.324                    0.99933        121.6409
0.328                   1.000235        120.6277
0.332                   1.001086        119.6018
0.336                   1.001737        118.5662
0.34                    1.002077        117.5273
0.344                   1.002049        116.4929
0.348                   1.001663        115.4718
0.352                   1.000987        114.4718
0.356                   1.000139        113.4981
0.36                   0.9992688        112.5531
0.364                   0.998527        111.6353
0.368                  0.9980422        110.7398
0.372                  0.9978975         109.859
0.376                  0.9981162        108.9843
0.38                   0.9986578         108.107
0.384                  0.9994258        107.2204
0.388                   1.000284        106.3205
0.392                   1.001083        105.4069
0.396                   1.001683        104.4827
0.4                     1.001981        103.5541
0.404                   1.001925        102.6289
0.408                   1.001527        101.7156
0.412                   1.000856        100.8214
0.416                   1.000031        99.95158
0.42                    0.999196        99.10805
0.424                   0.998498        98.28921
0.428                  0.9980591        97.49006
0.432                  0.9979567        96.70323
0.436                  0.9982082        95.92009
0.44                    0.998769        95.13239
0.444                    0.99954        94.33364
0.448                   1.000385        93.52033
0.452                   1.001157        92.69244
0.456                   1.001719        91.85339
0.46                    1.001973        91.00944
0.464                   1.001875        90.16859
0.468                   1.001442        89.33916
0.472                   1.000749        88.52836
0.476                  0.9999179        87.74103
0.48                   0.9990944        86.97875
0.484                  0.9984236        86.23956
0.488                   0.998024        85.51818
0.492                  0.9979665          84.807
0.496                  0.9982615        84.09732
0.5                    0.9988563        83.38102
0.504                  0.9996462        82.65192
0.508                   1.000491        81.90693
0.512                    1.00124        81.14645
0.516                   1.001762        80.37445
0.52                    1.001963        79.59757
0.524                   1.001805        78.82408
0.528                   1.001316        78.06235
0.532                   1.000579         77.3195
0.536                  0.9997235        76.60003
0.54                   0.9988996        75.90505
0.544                   0.998253        75.23203
0.548                  0.9978994        74.57513
0.552                  0.9979024        73.92629
0.556                  0.9982625        73.27664
0.56                   0.9989167        72.61803
0.564                  0.9997494        71.94455
0.568                   1.000613        71.25357
0.572                   1.001355        70.54615
0.576                   1.001841        69.82689
0.58                    1.001986        69.10303
0.584                   1.001761        68.38326
0.588                   1.001203        67.67617
0.592                   1.000409        66.98873
0.596                  0.9995183        66.32511
0.6                    0.9986882        65.68583
0.604                  0.9980668        65.06759
0.608                  0.9977659        64.46388
0.612                  0.9978407        63.86605
0.616                  0.9982799        63.26481
0.62                   0.9990066        62.65205
0.624                   0.999892        62.02214
0.628                   1.000779        61.37303
0.632                   1.001508        60.70659
0.636                   1.001949        60.02824
0.64                     1.00202        59.34601
0.644                   1.001705        58.66909
0.648                   1.001057        58.00635
0.652                   1.000188        57.36463
0.656                  0.9992489        56.74763
0.66                   0.9984077        56.15512
0.664                  0.9978147         55.5829
0.668                  0.9975779         55.0235
0.672                  0.9977422        54.46753
0.676                  0.9982809        53.90525
0.68                   0.9990999         53.3285
0.684                   1.000054        52.73202
0.688                   1.000975        52.11449
0.692                   1.001695        51.47871
0.696                   1.002086        50.83113
0.7                     1.002075        50.18067
0.704                    1.00166        49.53722
0.708                   1.000909        48.90987
0.712                  0.9999555        48.30535
0.716                  0.9989658        47.72675
0.72                   0.9981172         47.1729
0.724                  0.9975635        46.63851
0.728                  0.9974063        46.11504
0.732                   0.997678        45.59216
0.736                  0.9983334        45.05971
0.74                   0.9992576        44.50946
0.744                   1.000287        43.93667
0.748                   1.001237        43.34096
0.752                   1.001936        42.72625
0.756                   1.002257        42.10023
0.76                    1.002137        41.47289
0.764                   1.001592        40.85485
0.768                   1.000714        40.25548
0.772                  0.9996558        39.68127
0.776                  0.9986035        39.13454
0.78                    0.997746        38.61301
0.784                   0.997239        38.11003
0.788                  0.9971774        37.61576
0.792                  0.9975767        37.11883
0.796                  0.9983694        36.60855
0.8                    0.9994162        36.07675
0.804                   1.000531        35.51933
0.808                   1.001514        34.93698
0.812                   1.002187        34.33504
0.816                   1.002425        33.72258
0.82                    1.002181        33.11081
0.824                   1.001492        32.51116
0.828                   1.000475        31.93325
0.832                   0.999307        31.38319
0.836                  0.9981968        30.86235
0.84                   0.9973447        30.36706
0.844                  0.9969076        29.88908
0.848                  0.9969697        29.41705
0.852                  0.9975258        28.93852
0.856                  0.9984812        28.44224
0.86                   0.9996679        27.92023
0.864                   1.000875        27.36923
0.868                   1.001884        26.79131
0.872                   1.002512        26.19347
0.876                    1.00264        25.58643
0.88                    1.002238         24.9828
0.884                    1.00137        24.39486
0.888                   1.000183        23.83244
0.892                  0.9988852        23.30112
0.896                   0.997708        22.80109
0.9                    0.9968648        22.32697
0.904                  0.9965123        21.86864
0.908                  0.9967208        21.41299
0.912                  0.9974597        20.94632
0.916                  0.9986018        20.45686
0.92                   0.9999458        19.93692
0.924                   1.001251        19.38432
0.928                   1.002283        18.80279
0.932                    1.00285        18.20127
0.936                   1.002845         17.5924
0.94                    1.002259        16.99029
0.944                   1.001188        16.40818
0.948                  0.9998143          15.856
0.952                  0.9983813         15.3386
0.956                   0.997146        14.85464
0.96                   0.9963349         14.3967
0.964                  0.9961021        13.95242
0.968                  0.9964989         13.5067
0.972                  0.9974627        13.04447
0.976                  0.9988274        12.55347
0.98                    1.000352        12.02653
0.984                   1.001763        11.46288
0.988                   1.002806        10.86829
0.992                   1.003285        10.25402
0.996                   1.003105        9.634939
1                       1.002287        9.026958
1.004                   1.000963        8.444295
1.008                  0.9993617        7.896941
1.012                  0.9977649        7.388748
1.016                    0.99646        6.916516
1.02                   0.9956877        6.470324
1.024                  0.9955964        6.035158
1.028                  0.9962136        5.593589
1.032                  0.9974379        5.128998
1.036                  0.9990563        4.628675
1.04                    1.000781        4.086174
1.044                   1.002302        3.502484
1.048                   1.003341        2.885831
1.052                   1.003701         2.25026
1.056                   1.003305        1.613235
1.06                    1.002206        0.992684
1.064                   1.000587       0.4039081
1.068                  0.9987265      -0.1431842
1.072                  0.9969538      -0.6460451
1.076                  0.9955909       -1.110253
1.08                   0.9948925       -1.548807
1.084                  0.9949985       -1.979948
1.088                  0.9959044        -2.42387
1.092                  0.9974599       -2.898944
1.096                  0.9993941        -3.41828
1.1                     1.001364       -3.987296
1.104                   1.003013       -4.602745
1.108                   1.004039       -5.253362
1.112                   1.004243       -5.921682
1.116                    1.00357       -6.587134
1.12                     1.00212       -7.229309
1.124                   1.000131       -7.831649
1.128                   0.997947       -8.384388
1.132                  0.9959553       -8.886647
1.136                   0.994519       -9.346972
1.14                   0.9939098       -9.782188
1.144                  0.9942548       -10.21452
1.148                  0.9955097       -10.66754
1.152                  0.9974631       -11.16169
1.156                  0.9997727       -11.71049
1.16                    1.002026         -12.318
1.164                   1.003815       -12.97814
1.168                   1.004804       -13.67581
1.172                   1.004797        -14.3894
1.176                   1.003767       -15.09438
1.18                    1.001869       -15.76743
1.184                  0.9994172       -16.39041
1.188                  0.9968355       -16.95382
1.192                   0.994584       -17.45894
1.196                  0.9930782       -17.91818
1.2                    0.9926097       -18.35333
1.204                  0.9932889       -18.79178
1.208                  0.9950186       -19.26143
1.212                  0.9975074       -19.78538
1.216                   1.000321        -20.3776
1.22                    1.002957       -21.04036
1.224                   1.004936       -21.76391
1.228                   1.005886       -22.52822
1.232                   1.005606       -23.30625
1.236                   1.004108       -24.06842
1.24                     1.00162       -24.78739
1.244                  0.9985505       -25.44285
1.248                  0.9954305       -26.02546
1.252                  0.9928177       -26.53923
1.256                  0.9911986       -27.00161
1.26                   0.9908943         -27.441
1.264                  0.9919948       -27.89171
1.268                  0.9943338       -28.38752
1.272                  0.9975146       -28.95518
1.276                   1.000978       -29.60933
1.28                    1.004103       -30.34993
1.284                   1.006313       -31.16242
1.288                   1.007179       -32.02015
1.292                   1.006496        -32.8888
1.296                   1.004324       -33.73174
1.3                     1.000985       -34.51596
1.304                  0.9970248       -35.21779
1.308                   0.993121       -35.82775
1.312                  0.9899738       -36.35342
1.316                  0.9881767       -36.81929
1.32                   0.9880996       -37.26334
1.324                  0.9898092       -37.73012
1.328                   0.993045        -38.2623
1.332                  0.9972596       -38.89232
1.336                   1.001714       -39.63628
1.34                    1.005606       -40.49123
1.344                   1.008211       -41.43594
1.348                   1.009009       -42.43449
1.352                   1.007772       -43.44191
1.356                   1.004616       -44.41093
1.36                    0.999998        -45.2994
1.364                  0.9946541       -46.07763
1.368                  0.9894921       -46.73475
1.372                  0.9854385       -47.28271
1.376                  0.9832681       -47.75635
1.38                   0.9834467       -48.20852
1.384                  0.9860241       -48.70051
1.388                  0.9906057       -49.29001
1.392                  0.9964134       -50.01963
1.396                   1.002419       -50.90896
1.4                     1.007526       -51.95152
1.404                   1.010751        -53.1165
1.408                   1.011395       -54.35379
1.412                   1.009164       -55.60131
1.416                   1.004233       -56.79369
1.42                   0.9972522        -57.8718
1.424                   0.989272       -58.79294
1.428                  0.9816018       -59.54051
1.432                  0.9755977       -60.13127
1.436                  0.9724115       -60.61706
1.44                   0.9727477        -61.0785
1.444                  0.9766875        -61.6105
1.448                  0.9836355         -62.303
1.452                  0.9924055       -63.22252
1.456                   1.001422       -64.40017
1.46                    1.008988        -65.8278
1.464                   1.013559       -67.46113
1.468                   1.013988       -69.22728
1.472                   1.009712       -71.03415
1.476                   1.000871         -72.781
1.48                   0.9883564       -74.37067
1.484                  0.9737598       -75.72451
1.488                  0.9592129       -76.80068
1.492                  0.9470918       -77.61306
1.496                  0.9395916       -78.24478
1.5                    0.9382346       -78.84648
1.504                   0.943441       -79.61346
1.508                  0.9543059       -80.74597
1.512                  0.9686691       -82.40851
1.516                   0.983433       -84.70429
1.52                   0.9950058       -87.67079
1.524                  0.9997355       -91.29092
1.528                  0.9942592       -95.50996
1.532                  0.9757487       -100.2507
1.536                  0.9420648       -105.4234
1.54                   0.8918415         -110.93
1.544                  0.8245246       -116.6609
1.548                   0.740374       -122.4837
1.552                  0.6404485       -128.2131
1.556                  0.5265997       -133.5359
1.56                   0.4015569       -137.7805
1.564                  0.2695219       -138.9974
1.568                  0.1408328       -128.1384
1.572                 0.08870968       -60.72236
1.576                  0.1946434       -24.08324
1.58                   0.3270627       -20.84665
1.584                  0.4566199       -23.83658
1.588                  0.5770126       -28.73062
1.592                   0.684811       -34.35324
1.596                  0.7776664       -40.23628
1.6                    0.8540486       -46.13575
1.604                  0.9132217       -51.89337
1.608                   0.955264       -57.38668
1.612                  0.9810831        -62.5089
1.616                  0.9924056       -67.16142
1.62                   0.9917298       -71.25405
1.624                  0.9822197       -74.71199
1.628                   0.967518       -77.48941
1.632                  0.9514514       -79.58807
1.636                  0.9376177        -81.0755
1.64                   0.9288999       -82.09248
1.644                  0.9270156       -82.83887
1.648                  0.9322622       -83.53617
1.652                  0.9435755       -84.37956
1.656                  0.9588872       -85.50014
1.66                   0.9756414       -86.95097
1.664                  0.9913069       -88.71482
1.668                   1.003773       -90.72358
1.672                     1.0116       -92.87905
1.676                   1.014133        -95.0707
1.68                    1.011518       -97.18939
1.684                   1.004626       -99.13896
1.688                  0.9949129       -100.8466
1.692                  0.9842014       -102.2731
1.696                  0.9744099        -103.421
1.7                    0.9672435       -104.3375
1.704                  0.9639026       -105.1088
1.708                  0.9648726       -105.8439
1.712                  0.9698582       -106.6524
1.716                  0.9778802        -107.622
1.72                   0.9875007       -108.8034
1.724                  0.9971123        -110.206
1.728                   1.005218       -111.8021
1.732                   1.010652       -113.5361
1.736                   1.012734       -115.3363
1.74                    1.011325       -117.1249
1.744                    1.00683        -118.829
1.748                   1.000119       -120.3898
1.752                  0.9923884       -121.7701
1.756                  0.9849788        -122.962
1.76                   0.9791542       -123.9886
1.764                  0.9758881       -124.9025
1.768                  0.9756918       -125.7756
1.772                  0.9785302        -126.686
1.776                  0.9838459       -127.7018
1.78                   0.9906826       -128.8691
1.784                   0.997874       -130.2055
1.788                   1.004252       -131.6998
1.792                   1.008834       -133.3166
1.796                   1.010964       -135.0044
1.8                     1.010393       -136.7033
1.804                   1.007304        -138.354
1.808                    1.00227       -139.9056
1.812                  0.9961665        -141.323
1.816                  0.9900319       -142.5927
1.82                    0.984901       -143.7258
1.824                  0.9816297       -144.7572
1.828                  0.9807472         -145.74
1.832                  0.9823634       -146.7356
1.836                   0.986158       -147.8017
1.84                   0.9914499       -148.9817
1.844                  0.9973303       -150.2978
1.848                   1.002827       -151.7487
1.852                   1.007064       -153.3115
1.856                   1.009398       -154.9473
1.86                    1.009505       -156.6073
1.864                   1.007419       -158.2408
1.868                   1.003523       -159.8017
1.872                  0.9984839       -161.2553
1.876                  0.9931512        -162.584
1.88                   0.9884185       -163.7907
1.884                  0.9850765       -164.8988
1.888                   0.983676       -165.9493
1.892                  0.9844317        -166.993
1.896                  0.9871871       -168.0811
1.9                    0.9914495       -169.2557
1.904                  0.9964857       -170.5426
1.908                   1.001454       -171.9474
1.912                   1.005548       -173.4565
1.916                   1.008123       -175.0399
1.92                    1.008793       -176.6569
1.924                   1.007481       -178.2625
1.928                   1.004426       -179.8135
1.932                   1.000145        178.7249
1.936                  0.9953548        177.3738
1.94                   0.9908524        176.1369
1.944                  0.9873896        174.9988
1.948                  0.9855427        173.9277
1.952                  0.9856107          172.88
1.956                  0.9875641         171.809
1.96                   0.9910532        170.6731
1.964                  0.9954755        169.4435
1.968                   1.000086        168.1088
1.972                   1.004123        166.6754
1.976                   1.006938        165.1663
1.98                    1.008087        163.6159
1.984                   1.007402        162.0652
1.988                    1.00501        160.5553
1.992                   1.001311        159.1215
1.996                  0.9969194         157.788
2                      0.9925631        156.5636
2.004                  0.9889705        155.4397
2.008                  0.9867432        154.3911
2.012                  0.9862519        153.3798
2.016                  0.9875703        152.3621
2.02                   0.9904625        151.2967
2.024                  0.9944286         150.152
2.028                   0.998796        148.9115
2.032                   1.002836        147.5759
2.036                   1.005887        146.1621
2.04                    1.007456        144.7001
2.044                   1.007296        143.2273
2.048                   1.005437        141.7837
2.052                   1.002189        140.4056
2.056                  0.9980831        139.1197
2.06                      0.9938        137.9396
2.064                  0.9900539        136.8618
2.068                  0.9874749        135.8666
2.072                  0.9864982        134.9204
2.076                  0.9872856        133.9817
2.08                   0.9896968        133.0087
2.084                  0.9933142         131.967
2.088                  0.9975204        130.8358
2.092                   1.001607        129.6106
2.096                   1.004892        128.3036
2.1                     1.006834        126.9406
2.104                   1.007113        125.5569
2.108                   1.005678        124.1921
2.112                   1.002758        122.8833
2.116                  0.9988238        121.6605
2.12                   0.9945207        120.5413
2.124                  0.9905628        119.5271
2.128                  0.9876154        118.6026
2.132                  0.9861797        117.7374
2.136                  0.9865008        116.8913
2.14                   0.9885218        116.0216
2.144                  0.9918943        115.0906
2.148                  0.9960403        114.0729
2.152                   1.000255        112.9593
2.156                   1.003829        111.7575
2.16                    1.006159        110.4903
2.164                    1.00685        109.1915
2.168                   1.005771        107.9007
2.172                   1.003078        106.6575
2.176                  0.9991939        105.4953
2.18                   0.9947425        104.4361
2.184                  0.9904552        103.4862
2.188                  0.9870496        102.6346
2.192                  0.9851059        101.8533
2.196                  0.9849607        101.1025
2.2                    0.9866438        100.3371
2.204                  0.9898685         99.5151
2.208                   0.994083        98.60559
2.212                  0.9985671        97.59377
2.216                   1.002556        96.48285
2.22                    1.005366         95.2929
2.224                   1.006504        94.05718
2.228                   1.005744        92.81684
2.232                   1.003165          91.615
2.236                  0.9991428        90.49024
2.24                   0.9942981        89.47073
2.244                  0.9894065        88.56893
2.248                  0.9852727        87.77853
2.252                  0.9825952        87.07407
2.256                  0.9818395        86.41448
2.26                    0.983147        85.75006
2.264                  0.9863031         85.0316
2.268                   0.990771        84.21957
2.272                  0.9957831        83.29106
2.276                   1.000473        82.24316
2.28                    1.004017        81.09282
2.284                   1.005765        79.87347
2.288                   1.005346        78.62986
2.292                   1.002722        77.41172
2.296                  0.9982101        76.26672
2.3                     0.992444        75.23342
2.304                  0.9862896        74.33452
2.308                  0.9807171        73.57151
2.312                  0.9766436        72.92225
2.316                  0.9747679        72.34261
2.32                   0.9754338        71.77314
2.324                  0.9785505        71.14958
2.328                  0.9835936        70.41493
2.332                  0.9896876         69.5298
2.336                  0.9957477        68.47891
2.34                    1.000655        67.27263
2.344                   1.003428        65.94464
2.348                   1.003374        64.54666
2.352                   1.000198        63.14167