! TOUCHSTONE file generated by CST MICROWAVE STUDIO
! Date and time: Thu Jun  9 14:52:43 2022
! Project name: AppElm_antenne_patch_Alumina.cst
! Parameters = {L=30.5; W=41.8; e=0.035; h=1.6; lambda=0.190476; ls=90; w0=1.12; w1=0.373; ws=90; y0=17.5; y1=10}
! Header version: 2018
! Port assignment regex: !\s*Touchstone port\s*([0-9]+)\s*=\s*(CST MWS port|CST DS port)\s*([0-9]+|Zmin|Zmax)\s*\(\"(.*)\"\)(\s*mode\s*([0-9]+))?.*
! Touchstone port assignment:
! Touchstone port 1 = CST MWS port 1 ("")
# GHz S MA R 50
0                      0.9849194              -0
0.004                  0.9858609       -10.44318
0.008                  0.9885461       -20.77342
0.012                  0.9925802       -30.88459
0.016                  0.9973793       -40.68282
0.02                    1.002264       -50.08969
0.024                   1.006564       -59.04324
0.028                   1.009715       -67.49718
0.032                   1.011332       -75.41943
0.036                    1.01126       -82.79067
0.04                    1.009585       -89.60336
0.044                   1.006619       -95.86171
0.048                   1.002849       -101.5821
0.052                  0.9988635       -106.7933
0.056                  0.9952649       -111.5369
0.06                   0.9925759       -115.8652
0.064                  0.9911588       -119.8384
0.068                  0.9911621       -123.5198
0.072                  0.9925028       -126.9699
0.076                  0.9948893       -130.2408
0.08                   0.9978801       -133.3727
0.084                   1.000962       -136.3911
0.088                   1.003637       -139.3077
0.092                   1.005499       -142.1218
0.096                   1.006295       -144.8242
0.1                     1.005954       -147.4014
0.104                   1.004589       -149.8394
0.108                   1.002476        -152.128
0.112                   1.000001       -154.2639
0.116                  0.9975964       -156.2527
0.12                    0.995666        -158.109
0.124                  0.9945196       -159.8555
0.128                  0.9943223       -161.5199
0.132                  0.9950699       -163.1308
0.136                  0.9965968       -164.7138
0.14                   0.9986096        -166.288
0.144                   1.000744       -167.8634
0.148                    1.00263       -169.4409
0.152                   1.003955       -171.0127
0.156                   1.004513        -172.565
0.16                    1.004234       -174.0809
0.164                   1.003195       -175.5436
0.168                   1.001599       -176.9399
0.172                  0.9997384        -178.262
0.176                  0.9979463         -179.51
0.18                   0.9965348        179.3084
0.184                  0.9957423        178.1789
0.188                  0.9956933        177.0829
0.192                  0.9963777        176.0005
0.196                  0.9976567        174.9143
0.2                    0.9992903        173.8116
0.204                   1.000983        172.6871
0.208                   1.002437        171.5425
0.212                   1.003403        170.3864
0.216                   1.003724         169.232
0.22                    1.003358         168.095
0.224                   1.002383        166.9902
0.228                    1.00098        165.9295
0.232                  0.9994059        164.9195
0.236                  0.9979409        163.9599
0.24                    0.996843        163.0443
0.244                  0.9963022        162.1604
0.248                  0.9964061        161.2926
0.252                  0.9971265        160.4246
0.256                  0.9983257        159.5426
0.26                   0.9997832        158.6373
0.264                   1.001237        157.7055
0.268                   1.002431        156.7505
0.272                   1.003158        155.7811
0.276                   1.003296        154.8101
0.28                    1.002829        153.8519
0.284                   1.001846        152.9197
0.288                   1.000526        152.0238
0.292                  0.9991063        151.1692
0.296                  0.9978401        150.3549
0.3                    0.9969518         149.574
0.304                  0.9965959        148.8149
0.308                  0.9968317        148.0632
0.312                  0.9976115        147.3048
0.316                  0.9987912        146.5276
0.32                    1.000157        145.7244
0.324                   1.001464        144.8939
0.328                   1.002482        144.0403
0.332                   1.003033        143.1729
0.336                   1.003024        142.3042
0.34                    1.002459        141.4478
0.344                   1.001443        140.6159
0.348                   1.000157        139.8171
0.352                   0.998832        139.0553
0.356                  0.9977033        138.3283
0.36                   0.9969716        137.6287
0.364                  0.9967662        136.9448
0.368                  0.9971214        136.2629
0.372                  0.9979711        135.5699
0.376                  0.9991614        134.8553
0.38                    1.000478        134.1134
0.384                   1.001687         133.344
0.388                   1.002575        132.5526
0.392                   1.002985        131.7489
0.396                   1.002847        130.9454
0.4                     1.002187        130.1552
0.404                   1.001123        129.3895
0.408                  0.9998448         128.656
0.412                  0.9985793        127.9571
0.416                  0.9975522        127.2898
0.42                   0.9969468        126.6458
0.424                  0.9968708        126.0131
0.428                  0.9973366        125.3785
0.432                  0.9982602        124.7293
0.436                  0.9994756        124.0563
0.44                    1.000765        123.3551
0.444                     1.0019        122.6265
0.448                   1.002679        121.8771
0.452                   1.002964        121.1172
0.456                   1.002705        120.3596
0.46                    1.001948        119.6168
0.464                   1.000826        118.8996
0.468                   0.999538        118.2145
0.472                  0.9983126        117.5628
0.476                  0.9973685        116.9404
0.48                   0.9968747        116.3382
0.484                  0.9969198        115.7438
0.488                  0.9974959        115.1439
0.492                  0.9985006        114.5266
0.496                   0.999754        113.8833
0.5                     1.001033        113.2108
0.504                   1.002111        112.5113
0.508                   1.002795        111.7921
0.512                   1.002965        111.0643
0.516                    1.00259        110.3409
0.52                    1.001734        109.6345
0.524                   1.000547        108.9551
0.528                  0.9992402        108.3082
0.532                  0.9980447        107.6942
0.536                  0.9971743        107.1076
0.54                   0.9967856        106.5387
0.544                  0.9969495        105.9743
0.548                  0.9976378        105.4012
0.552                  0.9987285        104.8076
0.556                   1.000027        104.1862
0.56                    1.001303        103.5345
0.564                   1.002329        102.8561
0.568                   1.002923        102.1592
0.572                   1.002977        101.4558
0.576                    1.00248        100.7593
0.58                    1.001517         100.082
0.584                   1.000257        99.43343
0.588                  0.9989211        98.81834
0.592                  0.9977473        98.23579
0.596                  0.9969456        97.67932
0.6                    0.9966609        97.13792
0.604                  0.9969462        96.59806
0.608                  0.9977523        96.04608
0.612                  0.9989366        95.47081
0.616                   1.000289        94.86546
0.62                    1.001568        94.22892
0.624                   1.002548        93.56573
0.628                   1.003051        92.88547
0.632                   1.002988        92.20084
0.636                   1.002365        91.52561
0.64                     1.00129        90.87223
0.644                  0.9999506        90.24962
0.648                  0.9985824        89.66157
0.652                  0.9974293          89.106
0.656                  0.9966985        88.57513
0.66                   0.9965232        88.05687
0.664                  0.9969375        87.53693
0.668                  0.9978704        87.00146
0.672                  0.9991569        86.43959
0.676                   1.000569        85.84538
0.68                    1.001855        85.21886
0.684                   1.002786        84.56591
0.688                   1.003195        83.89727
0.692                   1.003004        83.22664
0.696                   1.002245        82.56828
0.7                     1.001046         81.9346
0.704                  0.9996166        81.33405
0.708                  0.9982087        80.76943
0.712                  0.9970731        80.23732
0.716                  0.9964147        79.72856
0.72                    0.996354        79.22989
0.724                   0.996906        78.72614
0.728                  0.9979745        78.20324
0.732                  0.9993712        77.65063
0.736                   1.000848        77.06324
0.74                    1.002142        76.44234
0.744                   1.003022        75.79527
0.748                   1.003328        75.13406
0.752                   1.003002        74.47343
0.756                   1.002095        73.82823
0.76                    1.000763        73.21089
0.764                   0.999237        72.62927
0.768                  0.9977879        72.08506
0.772                   0.996674        71.57348
0.776                  0.9960975        71.08384
0.78                   0.9961658        70.60145
0.784                  0.9968713        70.11032
0.788                   0.998092          69.596
0.792                  0.9996123        69.04837
0.796                   1.001163         68.4633
0.8                     1.002468        67.84343
0.804                   1.003292        67.19765
0.808                   1.003487        66.53945
0.812                    1.00301         65.8847
0.816                    1.00194        65.24892
0.82                    1.000459        64.64453
0.824                   0.998826        64.07877
0.828                  0.9973299        63.55216
0.832                  0.9962384        63.05831
0.836                  0.9957507        62.58485
0.84                   0.9959595         62.1156
0.844                  0.9968331        61.63355
0.848                  0.9982191        61.12394
0.852                  0.9998736        60.57704
0.856                   1.001503         59.9898
0.86                    1.002815         59.3664
0.864                   1.003575        58.71744
0.868                   1.003642        58.05804
0.872                   1.002996        57.40535
0.876                   1.001742         56.7756
0.88                    1.000095        56.18123
0.884                  0.9983429        55.62878
0.888                  0.9967954        55.11743
0.892                  0.9957313        54.63899
0.896                   0.995346         54.1792
0.9                    0.9957154        53.72017
0.904                  0.9967799        53.24377
0.908                  0.9983549        52.73489
0.912                   1.000162        52.18424
0.916                   1.001882        51.59001
0.92                    1.003205        50.95808
0.924                   1.003895        50.30097
0.928                   1.003819        49.63567
0.932                   1.002983        48.98074
0.936                   1.001523        48.35322
0.94                   0.9996901        47.76563
0.944                  0.9978034        47.22369
0.948                  0.9961983        46.72507
0.952                  0.9951652        46.25956
0.956                  0.9948956        45.81071
0.96                   0.9954463        45.35875
0.964                  0.9967265        44.88424
0.968                  0.9985137        44.37166
0.972                   1.000492        43.81229
0.976                   1.002311        43.20567
0.98                    1.003644        42.55965
0.984                   1.004247        41.88894
0.988                   1.004005        41.21263
0.992                   1.002947        40.55095
0.996                   1.001247        39.92186
1                      0.9991951        39.33797
1.004                  0.9971502        38.80412
1.008                  0.9954758        38.31623
1.012                  0.9944761        37.86177
1.016                   0.994339        37.42174
1.02                   0.9950991        36.97416
1.024                  0.9966302        36.49805
1.028                  0.9986656        35.97742
1.032                   1.000847        35.40413
1.036                   1.002786        34.77929
1.04                    1.004134          34.113
1.044                   1.004644        33.42251
1.048                   1.004213        32.72933
1.052                   1.002901        32.05566
1.056                   1.000923        31.42061
1.06                   0.9986183        30.83695
1.064                  0.9963893        30.30851
1.068                  0.9946342        29.82922
1.072                  0.9936742        29.38381
1.076                  0.9936934        28.95031
1.08                    0.994702        28.50403
1.084                  0.9965313        28.02222
1.088                  0.9988635        27.48822
1.092                   1.001288        26.89458
1.096                   1.003373         26.2442
1.1                     1.004743        25.54983
1.104                   1.005144         24.8317
1.108                   1.004488        24.11426
1.112                   1.002868         23.4221
1.116                   1.000551        22.77586
1.12                   0.9979322        22.18854
1.124                  0.9954687        21.66292
1.128                  0.9936023        21.19062
1.132                  0.9926768        20.75306
1.136                   0.992874        20.32464
1.14                   0.9941757        19.87737
1.144                  0.9963641        19.38617
1.148                  0.9990592         18.8335
1.152                   1.001786        18.21253
1.156                    1.00406        17.52833
1.16                    1.005469        16.79674
1.164                   1.005748        16.04159
1.168                   1.004824        15.29101
1.172                   1.002831        14.57264
1.176                   1.000095        13.90907
1.18                   0.9970825        13.31391
1.184                  0.9943196        12.78878
1.188                  0.9923042        12.32258
1.192                  0.9914127        11.89261
1.196                  0.9918277        11.46867
1.2                    0.9934983        11.01847
1.204                  0.9961462        10.51381
1.208                  0.9993139        9.935806
1.212                   1.002445        9.278317
1.216                   1.004982        8.548834
1.22                    1.006464        7.767024
1.224                   1.006607        6.961395
1.228                   1.005351        6.164703
1.232                    1.00288        5.408732
1.236                  0.9995932        4.719036
1.24                   0.9960469        4.110298
1.244                  0.9928615          3.5831
1.248                  0.9906133        3.122915
1.252                   0.989728        2.701941
1.256                  0.9903957        2.283795
1.26                   0.9925299         1.83027
1.264                  0.9957764        1.308657
1.268                  0.9995758       0.6979087
1.272                   1.003261    -0.007649681
1.276                   1.006175      -0.7975789
1.28                    1.007784       -1.647323
1.284                   1.007768       -2.522291
1.288                   1.006079       -3.383271
1.292                   1.002958       -4.192537
1.296                  0.9989006       -4.920014
1.3                    0.9945873       -5.548813
1.304                  0.9907717       -6.079184
1.308                   0.988149       -6.529811
1.312                  0.9872257       -6.935588
1.316                   0.988216       -7.341751
1.32                    0.990993       -7.795372
1.324                  0.9951024       -8.336211
1.328                   0.999841       -8.989176
1.332                   1.004381       -9.759995
1.336                   1.007912       -10.63461
1.34                    1.009782       -11.58188
1.344                   1.009603       -12.55859
1.348                   1.007326       -13.51596
1.352                    1.00326       -14.40694
1.356                   0.998033       -15.19373
1.36                    0.992509       -15.85479
1.364                  0.9876499       -16.39021
1.368                  0.9843484       -16.82389
1.372                  0.9832587       -17.20114
1.376                  0.9846591       -17.58116
1.38                   0.9883823       -18.02581
1.384                  0.9938323       -18.58723
1.388                   1.000086       -19.29794
1.392                   1.006052       -20.16517
1.396                   1.010663        -21.1704
1.4                     1.013046       -22.27292
1.404                   1.012674       -23.41612
1.408                   1.009457       -24.53549
1.412                   1.003779       -25.56749
1.416                  0.9964653       -26.45917
1.42                   0.9886838       -27.17796
1.424                  0.9817698       -27.72021
1.428                  0.9770027       -28.11611
1.432                  0.9753591       -28.42821
1.436                  0.9772999        -28.7418
1.44                   0.9826457       -29.14849
1.444                  0.9905818        -29.7273
1.448                  0.9997904       -30.52914
1.452                   1.008677       -31.56827
1.456                   1.015636       -32.82161
1.46                    1.019304       -34.23372
1.464                   1.018774        -35.7249
1.468                   1.013754       -37.20081
1.472                   1.004647       -38.56302
1.476                  0.9925683       -39.72157
1.48                   0.9792572       -40.60994
1.484                  0.9668811        -41.2025
1.488                  0.9577142       -41.53039
1.492                  0.9537132       -41.68927
1.496                   0.956069       -41.83074
1.5                    0.9648644       -42.13477
1.504                   0.978953       -42.77127
1.508                  0.9961055       -43.86556
1.512                   1.013351       -45.48002
1.516                   1.027401       -47.61361
1.52                    1.035041       -50.21247
1.524                   1.033448       -53.18306
1.528                   1.020418       -56.40183
1.532                  0.9945253       -59.71867
1.536                  0.9552537       -62.95308
1.54                   0.9031051       -65.88262
1.544                  0.8397452       -68.22292
1.548                  0.7682189       -69.60018
1.552                  0.6932883       -69.52675
1.556                  0.6218884       -67.42212
1.56                   0.5633947        -62.7967
1.564                  0.5286033       -55.75087
1.568                  0.5258697       -47.53804
1.572                  0.5559598       -40.18538
1.576                  0.6114945       -35.13938
1.58                   0.6817559       -32.66278
1.584                  0.7570249       -32.32044
1.588                   0.829983       -33.52822
1.592                  0.8955516       -35.78051
1.596                  0.9504295       -38.68765
1.6                    0.9927276       -41.95447
1.604                   1.021732       -45.35229
1.608                   1.037753       -48.69725
1.612                   1.041999       -51.83725
1.616                   1.036466       -54.64633
1.62                    1.023784       -57.02609
1.624                   1.007018       -58.91323
1.628                   0.989389       -60.29136
1.632                  0.9739166       -61.20216
1.636                  0.9630245       -61.74877
1.64                   0.9581826       -62.08394
1.644                  0.9597062       -62.38152
1.648                  0.9667898       -62.80024
1.652                   0.977771       -63.45314
1.656                  0.9905331       -64.39311
1.66                    1.002922       -65.61541
1.664                   1.013084       -67.07055
1.668                     1.0197       -68.68061
1.672                   1.022093       -70.35426
1.676                   1.020255       -71.99942
1.68                    1.014791        -73.5335
1.684                   1.006803       -74.89251
1.688                  0.9977149       -76.03914
1.692                  0.9890591        -76.9686
1.696                  0.9822338       -77.71083
1.7                    0.9782778       -78.32638
1.704                  0.9777023       -78.89577
1.708                  0.9804221        -79.5036
1.712                  0.9858037       -80.22211
1.716                   0.992813       -81.09879
1.72                    1.000224       -82.15049
1.724                   1.006834       -83.36457
1.728                   1.011649       -84.70446
1.732                   1.014016       -86.11793
1.736                   1.013692       -87.54559
1.74                    1.010857       -88.92929
1.744                   1.006068        -90.2197
1.748                   1.000162       -91.38283
1.752                    0.99413       -92.40517
1.756                   0.988954       -93.29628
1.76                   0.9854508       -94.08759
1.764                  0.9841375        -94.8273
1.768                  0.9851502       -95.57153
1.772                  0.9882336       -96.37376
1.776                   0.992802       -97.27532
1.78                   0.9980554       -98.29889
1.784                   1.003124       -99.44636
1.788                    1.00721       -100.7003
1.792                   1.009707       -102.0284
1.796                   1.010279       -103.3893
1.8                     1.008902       -104.7386
1.804                    1.00585       -106.0355
1.808                   1.001651       -107.2482
1.812                  0.9970011       -108.3585
1.816                  0.9926546       -109.3649
1.82                   0.9893053       -110.2832
1.824                  0.9874716       -111.1438
1.828                  0.9874138        -111.987
1.832                  0.9890946       -112.8554
1.836                  0.9921941       -113.7865
1.84                   0.9961721        -114.806
1.844                   1.000368       -115.9247
1.848                   1.004108       -117.1375
1.852                   1.006815       -118.4251
1.856                    1.00809       -119.7581
1.86                    1.007766       -121.1014
1.864                   1.005926       -122.4196
1.868                   1.002884       -123.6818
1.872                  0.9991386       -124.8661
1.876                  0.9952916        -125.963
1.88                   0.9919575       -126.9772
1.884                  0.9896625       -127.9269
1.888                  0.9887612       -128.8413
1.892                  0.9893779       -129.7553
1.896                  0.9913886       -130.7037
1.9                    0.9944481        -131.715
1.904                  0.9980496       -132.8068
1.908                   1.001613       -133.9835
1.912                   1.004577       -135.2362
1.916                   1.006486        -136.545
1.92                    1.007055       -137.8819
1.924                   1.006208       -139.2154
1.928                   1.004089        -140.515
1.932                   1.001037       -141.7552
1.936                  0.9975347       -142.9198
1.94                   0.9941368       -144.0041
1.944                  0.9913828       -145.0163
1.948                  0.9897115       -145.9765
1.952                  0.9893876       -146.9134
1.956                  0.9904578       -147.8595
1.96                   0.9927439        -148.846
1.964                  0.9958747       -149.8966
1.968                  0.9993475       -151.0246
1.972                   1.002611       -152.2306
1.976                   1.005152       -153.5031
1.98                    1.006574       -154.8205
1.984                   1.006653       -156.1547
1.988                   1.005375       -157.4748
1.992                   1.002931       -158.7521
1.996                   0.999697       -159.9635
2                      0.9961778       -161.0956
2.004                  0.9929298       -162.1472
2.008                  0.9904755       -163.1298
2.012                   0.989218       -164.0663
2.016                   0.989371       -164.9874
2.02                   0.9909221       -165.9267
2.024                  0.9936318       -166.9145
2.028                  0.9970723        -167.973
2.032                   1.000698       -169.1127
2.036                   1.003933       -170.3306
2.04                     1.00626       -171.6117
2.044                   1.007301       -172.9308
2.048                   1.006874       -174.2566
2.052                   1.005022       -175.5562
2.056                   1.002011       -176.7995
2.06                   0.9982963       -177.9639
2.064                   0.994458       -179.0379
2.068                  0.9911134        179.9758
2.072                  0.9888179        179.0607
2.076                  0.9879715        178.1879
2.08                   0.9887449        177.3208
2.084                  0.9910451        176.4214
2.088                  0.9945255         175.457
2.092                  0.9986406        174.4061
2.096                   1.002734        173.2612
2.1                     1.006145        172.0305
2.104                   1.008309        170.7359
2.108                   1.008848        169.4096
2.112                   1.007628        168.0902
2.116                   1.004792        166.8163
2.12                    1.000742        165.6218
2.124                  0.9960915        164.5302
2.128                  0.9915805        163.5501
2.132                  0.9879596        162.6723
2.136                  0.9858659        161.8702
2.14                   0.9857061        161.1031
2.144                  0.9875755        160.3227
2.148                  0.9912281        159.4821
2.152                  0.9961108        158.5443
2.156                   1.001451        157.4883
2.16                    1.006381        156.3129
2.164                   1.010076        155.0364
2.168                   1.011887        153.6933
2.172                   1.011438        152.3297
2.176                   1.008697        150.9971
2.18                    1.003998        149.7455
2.184                  0.9980065        148.6156
2.188                  0.9916468        147.6326
2.192                  0.9859658        146.7988
2.196                  0.9819686        146.0915
2.2                    0.9804371        145.4634
2.204                  0.9817713        144.8496
2.208                  0.9858929        144.1792
2.212                  0.9922354        143.3887
2.216                  0.9998256         142.434
2.22                    1.007441        141.2978
2.224                   1.013803        139.9918
2.228                   1.017777        138.5544
2.232                   1.018544         137.045
2.236                   1.015737        135.5365
2.24                    1.009522        134.1075
2.244                   1.000623         132.832
2.248                  0.9902725        131.7687
2.252                  0.9800833        130.9485
2.256                  0.9718328        130.3625
2.26                   0.9671686        129.9556
2.264                  0.9672826        129.6281
2.268                  0.9726265        129.2509
2.272                  0.9827506        128.6899
2.276                  0.9963234        127.8325
2.28                    1.011315        126.6077
2.284                   1.025287        124.9937
2.288                   1.035712        123.0161
2.292                   1.040265        120.7398
2.296                   1.037054        118.2607
2.3                     1.024802        115.6994
2.304                   1.002979        113.1977
2.308                  0.9719071        110.9187
2.312                  0.9328461        109.0465
2.316                  0.8880645        107.7838
2.32                   0.8408749        107.3381
2.324                  0.7955763        107.8878
2.328                   0.757175        109.5147
2.332                  0.7307116        112.1124
2.336                  0.7201376        115.3226
2.34                   0.7270856        118.5867
2.344                  0.7502689        121.3309
2.348                  0.7859668        123.1616
2.352                  0.8292302        123.9388