! TOUCHSTONE file generated by CST MICROWAVE STUDIO
! Date and time: Tue Jun 14 12:12:45 2022
! Project name: AppElm_antenne_patch_FR4.cst
! Parameters = {L=45; W=58.5; e=0.035; h=1.6; lambda=0.190476; ls=120; w0=2.286; w1=0.847; ws=120; y0=18; y1=23.8}
! Header version: 2018
! Port assignment regex: !\s*Touchstone port\s*([0-9]+)\s*=\s*(CST MWS port|CST DS port)\s*([0-9]+|Zmin|Zmax)\s*\(\"(.*)\"\)(\s*mode\s*([0-9]+))?.*
! Touchstone port assignment:
! Touchstone port 1 = CST MWS port 1 ("")
# GHz S MA R 50
0                      0.9882499              -0
0.004                  0.9889546       -9.971224
0.008                  0.9909704       -19.85057
0.012                  0.9940194       -29.55087
0.016                  0.9976855        -38.9935
0.02                    1.001478       -48.11105
0.024                   1.004903        -56.8484
0.028                   1.007529       -65.16277
0.032                   1.009045       -73.02306
0.036                   1.009299       -80.40896
0.04                    1.008309       -87.31044
0.044                   1.006264       -93.72734
0.048                   1.003487       -99.66949
0.052                   1.000393       -105.1568
0.056                  0.9974272       -110.2189
0.06                   0.9950033       -114.8945
0.064                  0.9934405       -119.2289
0.068                  0.9929203       -123.2712
0.072                  0.9934626       -127.0703
0.076                  0.9949278       -130.6714
0.08                   0.9970456        -134.112
0.084                  0.9994627         -137.42
0.088                   1.001799       -140.6128
0.092                   1.003707        -143.698
0.096                   1.004923       -146.6751
0.1                     1.005299       -149.5381
0.104                   1.004822       -152.2784
0.108                   1.003609       -154.8881
0.112                   1.001884       -157.3623
0.116                  0.9999435       -159.7013
0.12                   0.9981039       -161.9117
0.124                   0.996655       -164.0065
0.128                   0.995814       -166.0041
0.132                  0.9956914       -167.9259
0.136                  0.9962782       -169.7938
0.14                   0.9974505       -171.6274
0.144                  0.9989943       -173.4414
0.148                   1.000644       -175.2442
0.152                   1.002129       -177.0375
0.156                   1.003212       -178.8169
0.16                    1.003734        179.4268
0.164                   1.003628        177.7053
0.168                   1.002934        176.0304
0.172                   1.001784        174.4124
0.176                   1.000381         172.857
0.18                   0.9989643        171.3656
0.184                  0.9977696        169.9333
0.188                  0.9969897        168.5509
0.192                  0.9967434         167.205
0.196                   0.997057        165.8811
0.2                    0.9978624        164.5654
0.204                  0.9990111        163.2468
0.208                   1.000301         161.919
0.212                   1.001511        160.5806
0.216                    1.00244        159.2356
0.22                     1.00294        157.8919
0.224                   1.002935          156.56
0.228                   1.002437        155.2512
0.232                   1.001538        153.9752
0.236                   1.000399        152.7391
0.24                   0.9992149        151.5455
0.244                  0.9981869        150.3923
0.248                   0.997487        149.2728
0.252                  0.9972281        148.1772
0.256                  0.9974465        147.0937
0.26                   0.9980965        146.0107
0.264                  0.9990597        144.9191
0.268                   1.000166        143.8131
0.272                   1.001223        142.6914
0.276                   1.002053        141.5573
0.28                    1.002517        140.4178
0.284                   1.002541        139.2825
0.288                   1.002127        138.1615
0.292                    1.00135        137.0643
0.296                   1.000347        135.9975
0.3                    0.9992924        134.9643
0.304                  0.9983674        133.9634
0.308                  0.9977295        132.9893
0.312                  0.9974861        132.0335
0.316                   0.997675        131.0857
0.32                   0.9982589        130.1355
0.324                  0.9991333        129.1744
0.328                   1.000144        128.1971
0.332                   1.001115        127.2026
0.336                    1.00188        126.1937
0.34                    1.002309         125.177
0.344                    1.00233        124.1615
0.348                   1.001943        123.1567
0.352                   1.001217        122.1717
0.356                   1.000278         121.213
0.36                   0.9992908        120.2836
0.364                   0.998426        119.3825
0.368                  0.9978331        118.5048
0.372                  0.9976142        117.6423
0.376                  0.9978056        116.7854
0.38                    0.998372        115.9243
0.384                  0.9992134         115.051
0.388                   1.000182        114.1605
0.392                   1.001109        113.2518
0.396                   1.001834        112.3279
0.4                     1.002233        111.3952
0.404                   1.002237        110.4623
0.408                   1.001847        109.5389
0.412                   1.001131        108.6334
0.416                   1.000216        107.7523
0.42                   0.9992596        106.8986
0.424                  0.9984299        106.0709
0.428                  0.9978722        105.2646
0.432                   0.997684        104.4716
0.436                  0.9978983        103.6823
0.44                   0.9984772        102.8872
0.444                  0.9993193        102.0786
0.448                   1.000277        101.2517
0.452                   1.001182        100.4059
0.456                   1.001878        99.54424
0.46                    1.002241        98.67334
0.464                    1.00221        97.80198
0.468                   1.001788        96.93966
0.472                   1.001049        96.09495
0.476                   1.000121        95.27406
0.48                   0.9991644        94.47964
0.484                   0.998348        93.71034
0.488                  0.9978146        92.96099
0.492                  0.9976587        92.22341
0.496                   0.997908        91.48791
0.5                    0.9985189        90.74495
0.504                  0.9993841        89.98693
0.508                   1.000351         89.2094
0.512                    1.00125        88.41194
0.516                   1.001923        87.59817
0.52                    1.002249        86.77499
0.524                   1.002172        85.95153
0.528                   1.001701        85.13747
0.532                   1.000919         84.3414
0.536                   0.999959        83.56934
0.54                   0.9989899        82.82368
0.544                   0.998182         82.1026
0.548                  0.9976784        81.40044
0.552                  0.9975694        80.70856
0.556                   0.997876        80.01693
0.56                   0.9985454        79.31585
0.564                  0.9994608        78.59778
0.568                   1.000461        77.85862
0.572                    1.00137        77.09838
0.576                   1.002028        76.32123
0.58                    1.002316        75.53471
0.584                   1.002183        74.74843
0.588                   1.001649        73.97241
0.592                   1.000804        73.21535
0.596                  0.9997965        72.48315
0.6                    0.9988018        71.77773
0.604                  0.9979962        71.09673
0.608                  0.9975233        70.43378
0.612                  0.9974692         69.7796
0.616                  0.9978459         69.1236
0.62                   0.9985888        68.45589
0.624                  0.9995678        67.76897
0.628                   1.000611        67.05905
0.632                   1.001533        66.32683
0.636                   1.002169        65.57719
0.64                    1.002407        64.81845
0.644                   1.002199         64.0609
0.648                   1.001578        63.31497
0.652                   1.000651        62.58957
0.656                  0.9995773        61.89035
0.66                   0.9985459        61.21873
0.664                  0.9977396        60.57159
0.668                  0.9973034        59.94164
0.672                  0.9973177        59.31875
0.676                  0.9977832        58.69171
0.68                   0.9986203        58.05025
0.684                  0.9996825        57.38692
0.688                   1.000782        56.69842
0.692                   1.001725        55.98616
0.696                   1.002343        55.25599
0.7                     1.002522        54.51717
0.704                   1.002228        53.78081
0.708                   1.001508         53.0579
0.712                   1.000485        52.35748
0.716                  0.9993358        51.68496
0.72                   0.9982643        51.04114
0.724                  0.9974613        50.42191
0.728                  0.9970729        49.81891
0.732                   0.997172        49.22097
0.736                  0.9977453        48.61612
0.74                   0.9986947         47.9937
0.744                  0.9998536        47.34639
0.748                   1.001017        46.67146
0.752                   1.001979        45.97123
0.756                   1.002565         45.2527
0.76                    1.002668         44.5263
0.764                   1.002263        43.80409
0.768                   1.001416        43.09771
0.772                    1.00027        42.41634
0.776                   0.999026         41.7651
0.78                   0.9979015        41.14395
0.784                   0.997098        40.54764
0.788                  0.9967619        39.96652
0.792                  0.9969571        39.38819
0.796                  0.9976534        38.79976
0.8                    0.9987304        38.19019
0.804                  0.9999983        37.55231
0.808                   1.001232        36.88408
0.812                   1.002211        36.18897
0.816                   1.002757         35.4753
0.82                    1.002768        34.75483
0.824                   1.002234        34.04073
0.828                   1.001242        33.34535
0.832                  0.9999614        32.67801
0.836                  0.9986149        32.04336
0.84                   0.9974408         31.4404
0.844                  0.9966506        30.86247
0.848                  0.9963899        30.29837
0.852                  0.9967113        29.73428
0.856                  0.9975636         29.1563
0.86                   0.9987998        28.55293
0.864                   1.000202        27.91728
0.868                   1.001523        27.24817
0.872                   1.002525        26.55042
0.876                   1.003027        25.83394
0.88                    1.002932        25.11204
0.884                   1.002249        24.39919
0.888                    1.00109        23.70849
0.892                  0.9996532        23.04942
0.896                    0.99819        22.42608
0.9                    0.9969606        21.83625
0.904                  0.9961873        21.27165
0.908                  0.9960145        20.71927
0.912                  0.9964806        20.16367
0.916                  0.9975091        19.58979
0.92                   0.9989219        18.98573
0.924                    1.00047        18.34491
0.928                   1.001878        17.66726
0.932                   1.002892        16.95918
0.936                   1.003326        16.23245
0.94                    1.003093        15.50219
0.944                   1.002224        14.78432
0.948                   1.000861        14.09281
0.952                  0.9992358        13.43726
0.956                  0.9976339        12.82105
0.96                     0.99634        12.24053
0.964                  0.9955894        11.68544
0.968                  0.9955239        11.14066
0.972                  0.9961642         10.5888
0.976                  0.9974041        10.01349
0.98                   0.9990285        9.402359
0.984                   1.000751        8.749271
0.988                   1.002265        8.055439
0.992                   1.003298        7.329169
0.996                   1.003657          6.5844
1                       1.003269        5.838355
1.004                   1.002188        5.108637
1.008                   1.000593        4.410229
1.012                  0.9987576        3.752824
1.016                   0.997004         3.13894
1.02                   0.9956461        2.563196
1.024                  0.9949336        2.013015
1.028                  0.9950047        1.470722
1.032                  0.9958581       0.9167173
1.036                   0.997352       0.3330947
1.04                   0.9992269      -0.2930369
1.044                   1.001153      -0.9672117
1.048                   1.002785       -1.686649
1.052                    1.00383        -2.44078
1.056                   1.004088       -3.213067
1.06                    1.003501       -3.983786
1.064                   1.002153       -4.733306
1.068                   1.000266       -5.445439
1.072                  0.9981628       -6.110345
1.076                  0.9962114       -6.726516
1.08                   0.9947612       -7.301393
1.084                  0.9940794       -7.850337
1.088                  0.9943003       -8.394128
1.092                   0.995397       -8.955051
1.096                  0.9971851       -9.552857
1.1                    0.9993524        -10.2011
1.104                   1.001515       -10.90458
1.108                   1.003286       -11.65869
1.112                   1.004341        -12.4502
1.116                   1.004477       -13.25941
1.12                    1.003649       -14.06359
1.124                    1.00198       -14.84071
1.128                  0.9997436       -15.57297
1.132                  0.9973213        -16.2504
1.136                   0.995138       -16.87266
1.14                    0.993587       -17.44973
1.144                  0.9929582       -18.00046
1.148                  0.9933813       -18.54938
1.152                  0.9947989       -19.12222
1.156                  0.9969729       -19.74111
1.16                   0.9995264       -20.42041
1.164                   1.002009       -21.16421
1.168                   1.003976        -21.9656
1.172                   1.005068         -22.808
1.176                   1.005071       -23.66793
1.18                    1.003958       -24.51884
1.184                   1.001894       -25.33546
1.188                  0.9992189       -26.09806
1.192                  0.9963874       -26.79612
1.196                   0.993897       -27.43066
1.2                    0.9921987       -28.01469
1.204                  0.9916135       -28.57139
1.208                  0.9922692       -29.13015
1.212                  0.9940714       -29.72114
1.216                  0.9967171       -30.36959
1.22                   0.9997462       -31.09113
1.224                   1.002623       -31.88896
1.228                   1.004828       -32.75346
1.232                   1.005953       -33.66388
1.236                   1.005767       -34.59183
1.24                    1.004261       -35.50579
1.244                   1.001656       -36.37614
1.248                  0.9983721       -37.18024
1.252                   0.994962       -37.90662
1.256                  0.9920225       -38.55774
1.26                   0.9900859       -39.15043
1.264                  0.9895217       -39.71363
1.268                   0.990461       -40.28336
1.272                  0.9927663       -40.89601
1.276                  0.9960497       -41.58142
1.28                   0.9997408       -42.35729
1.284                   1.003186       -43.22608
1.288                   1.005763        -44.1748
1.292                   1.006987       -45.17737
1.296                   1.006596       -46.19881
1.3                     1.004597       -47.20073
1.304                   1.001277       -48.14733
1.308                  0.9971642       -49.01137
1.312                  0.9929464       -49.77945
1.316                  0.9893608       -50.45541
1.32                   0.9870624       -51.06103
1.324                  0.9864988        -51.6332
1.328                   0.987818       -52.21755
1.332                  0.9908292       -52.85983
1.336                  0.9950296       -53.59705
1.34                   0.9996908       -54.45054
1.344                   1.003987       -55.42232
1.348                   1.007133       -56.49515
1.352                   1.008526       -57.63553
1.356                   1.007838       -58.79911
1.36                    1.005085       -59.93721
1.364                   1.000637       -61.00414
1.368                  0.9951711       -61.96475
1.372                  0.9895778       -62.80121
1.376                   0.984818       -63.51798
1.38                   0.9817538       -64.14334
1.384                  0.9809807       -64.72613
1.388                  0.9827006       -65.32741
1.392                  0.9866643       -66.00883
1.396                  0.9922048       -66.82031
1.4                      0.99835       -67.79073
1.404                   1.003992       -68.92312
1.408                   1.008074        -70.1949
1.412                   1.009766       -71.56203
1.416                   1.008607       -72.96566
1.42                    1.004583       -74.34033
1.424                  0.9981632       -75.62302
1.428                  0.9902497       -76.76304
1.432                  0.9820673       -77.73199
1.436                  0.9749795       -78.53206
1.44                    0.970252       -79.20053
1.444                  0.9688042         -79.807
1.448                  0.9710009       -80.44237
1.452                  0.9765444       -81.20118
1.456                  0.9845015        -82.1623
1.46                   0.9934568       -83.37397
1.464                   1.001754       -84.84645
1.468                   1.007768       -86.55238
1.472                   1.010156       -88.43276
1.476                   1.008069       -90.40553
1.48                    1.001293       -92.37534
1.484                  0.9903288       -94.24452
1.488                   0.976385       -95.92603
1.492                  0.9612803       -97.35933
1.496                  0.9472218       -98.52855
1.5                     0.936461        -99.4789
1.504                  0.9308477       -100.3237
1.508                  0.9313778       -101.2337
1.512                  0.9378647        -102.407
1.516                  0.9488559        -104.029
1.52                   0.9618183        -106.239
1.524                  0.9735103       -109.1147
1.528                  0.9804126       -112.6757
1.532                  0.9791111       -116.8983
1.536                  0.9665873       -121.7322
1.54                   0.9404121       -127.1153
1.544                  0.8988594       -132.9842
1.548                  0.8409627       -139.2811
1.552                  0.7665276       -145.9599
1.556                  0.6761115       -152.9932
1.56                   0.5709791        -160.387
1.564                  0.4530399        -168.222
1.568                  0.3247916       -176.8006
1.572                  0.1893946        172.5496
1.576                 0.05367283        144.2008
1.58                  0.09808258        0.793658
1.584                  0.2354259       -15.59134
1.588                  0.3687152       -25.23165
1.592                   0.493647       -33.51286
1.596                  0.6073283       -41.20288
1.6                    0.7074654        -48.4973
1.604                   0.792368       -55.44372
1.608                  0.8610125       -62.03433
1.612                  0.9130982        -68.2342
1.616                  0.9490838       -73.99259
1.62                   0.9701981       -79.24892
1.624                  0.9784137       -83.93887
1.628                  0.9763753       -88.00232
1.632                   0.967263       -91.39534
1.636                  0.9545702       -94.10591
1.64                    0.941782       -96.17127
1.644                  0.9319679       -97.69021
1.648                  0.9273546       -98.82107
1.652                  0.9289971       -99.75987
1.656                  0.9366739       -100.7024
1.66                   0.9490564       -101.8052
1.664                  0.9640939       -103.1611
1.668                  0.9794791       -104.7947
1.672                  0.9930674       -106.6736
1.676                   1.003185       -108.7265
1.68                    1.008806       -110.8607
1.684                   1.009627       -112.9767
1.688                   1.006043       -114.9805
1.692                  0.9990542       -116.7939
1.696                  0.9901125       -118.3639
1.7                    0.9808981       -119.6707
1.704                  0.9730639       -120.7331
1.708                  0.9679645       -121.6076
1.712                  0.9664294       -122.3793
1.716                  0.9686283       -123.1457
1.72                   0.9740724       -123.9969
1.724                  0.9817435       -124.9987
1.728                  0.9903152        -126.183
1.732                  0.9984033       -127.5466
1.736                   1.004795       -129.0562
1.74                    1.008622       -130.6579
1.744                   1.009463       -132.2865
1.748                   1.007376       -133.8754
1.752                   1.002872       -135.3653
1.756                  0.9968192       -136.7125
1.76                   0.9903064       -137.8949
1.764                  0.9844687       -138.9163
1.768                   0.980298       -139.8069
1.772                  0.9784763       -140.6183
1.776                  0.9792609        -141.414
1.78                   0.9824504       -142.2572
1.784                  0.9874419       -143.1987
1.788                  0.9933555       -144.2685
1.792                  0.9992032       -145.4726
1.796                   1.004057       -146.7939
1.8                     1.007193       -148.1975
1.804                   1.008195       -149.6371
1.808                   1.006996       -151.0625
1.812                   1.003882       -152.4268
1.816                  0.9994352       -153.6932
1.82                   0.9944376       -154.8401
1.824                  0.9897458        -155.865
1.828                  0.9861486       -156.7857
1.832                  0.9842337        -157.637
1.836                  0.9842887       -158.4647
1.84                   0.9862575       -159.3174
1.844                  0.9897602       -160.2368
1.848                   0.994172       -161.2508
1.852                  0.9987416       -162.3697
1.856                   1.002722       -163.5855
1.86                    1.005492       -164.8746
1.864                   1.006647       -166.2027
1.868                   1.006055       -167.5302
1.872                   1.003865       -168.8184
1.876                   1.000481       -170.0353
1.88                   0.9964902         -171.16
1.884                  0.9925707       -172.1864
1.888                  0.9893773       -173.1243
1.892                  0.9874328       -173.9982
1.896                  0.9870395       -174.8428
1.9                    0.9882315        -175.697
1.904                  0.9907731       -176.5963
1.908                  0.9942097       -177.5671
1.912                  0.9979522        -178.622
1.916                   1.001381        -179.759
1.92                    1.003948        179.0375
1.924                   1.005263        177.7935
1.928                   1.005145        176.5408
1.932                   1.003651        175.3121
1.936                   1.001053         174.136
1.94                   0.9978004        173.0331
1.944                  0.9944404         172.012
1.948                  0.9915309        171.0686
1.952                  0.9895474         170.186
1.956                  0.9888034        169.3375
1.96                   0.9893988        168.4914
1.964                  0.9912065        167.6168
1.968                  0.9939001        166.6887
1.972                  0.9970151        165.6925
1.976                    1.00003        164.6258
1.98                    1.002456        163.4979
1.984                   1.003911        162.3283
1.988                   1.004179        161.1425
1.992                   1.003238        159.9685
1.996                   1.001259        158.8324
2                       0.998579        157.7544
2.004                   0.995642        156.7456
2.008                  0.9929296        155.8062
2.012                  0.9908807        154.9256
2.016                  0.9898196        154.0835
2.02                   0.9899028        153.2541
2.024                  0.9910936        152.4099
2.028                  0.9931729        151.5272
2.032                  0.9957806        150.5896
2.036                  0.9984777        149.5906
2.04                    1.000822        148.5344
2.044                   1.002437        147.4344
2.048                   1.003072         146.311
2.052                   1.002634        145.1881
2.056                   1.001205        144.0898
2.06                   0.9990194        143.0361
2.064                  0.9964329        142.0404
2.068                  0.9938612        141.1074
2.072                  0.9917149        140.2318
2.076                  0.9903319        139.3993
2.08                   0.9899233        138.5888
2.084                  0.9905377        137.7763
2.088                  0.9920561        136.9387
2.092                  0.9942137        136.0578
2.096                  0.9966469        135.1233
2.1                    0.9989532        134.1339
2.104                   1.000756        133.0975
2.108                   1.001766        132.0295
2.112                   1.001818        130.9503
2.116                   1.000901         129.882
2.12                   0.9991537        128.8452
2.124                  0.9968457        127.8561
2.128                  0.9943331        126.9236
2.132                  0.9920049         126.048
2.136                  0.9902209         125.221
2.14                    0.989254        124.4263
2.144                  0.9892446        123.6427
2.148                  0.9901787        122.8475
2.152                  0.9918899        122.0201
2.156                  0.9940884        121.1455
2.16                   0.9964068        120.2168
2.164                   0.998461        119.2357
2.168                  0.9999084        118.2123
2.172                   1.000501        117.1634
2.176                   1.000123        116.1096
2.18                   0.9988052        115.0727
2.184                  0.9967257        114.0722
2.188                  0.9941819        113.1223
2.192                  0.9915478          112.23
2.196                  0.9892172        111.3933
2.2                    0.9875422        110.6013
2.204                  0.9867756        109.8355
2.208                  0.9870281        109.0731
2.212                  0.9882471        108.2899
2.216                  0.9902235        107.4651
2.22                   0.9926231         106.584
2.224                  0.9950391        105.6411
2.228                  0.9970541        104.6399
2.232                  0.9983056        103.5932
2.236                  0.9985405        102.5204
2.24                   0.9976557        101.4454
2.244                  0.9957172        100.3927
2.248                  0.9929551         99.3838
2.252                  0.9897346        98.43429
2.256                  0.9865056         97.5506
2.26                   0.9837357        96.72849
2.264                  0.9818355        95.95288
2.268                  0.9810881        95.19973
2.272                  0.9815963        94.43949
2.276                  0.9832579        93.64196
2.28                   0.9857749        92.78137
2.284                  0.9886958        91.84065
2.288                  0.9914837        90.81431
2.292                   0.993599        89.70924
2.296                  0.9945828        88.54374
2.3                    0.9941294        87.34485
2.304                  0.9921387        86.14476
2.308                   0.988742        84.97628
2.312                  0.9842941        83.86786
2.316                  0.9793344        82.83891
2.32                   0.9745133        81.89545
2.324                  0.9704941        81.02758
2.328                  0.9678421        80.20913
2.332                  0.9669177        79.40044
2.336                  0.9677974         78.5543
2.34                   0.9702406        77.62369
2.344                  0.9737103        76.56985
2.348                  0.9774478        75.36884
2.352                  0.9805835        74.01526