! TOUCHSTONE file generated by CST MICROWAVE STUDIO
! Date and time: Tue Jun 14 12:12:44 2022
! Project name: AppElm_antenne_patch_FR4.cst
! Parameters = {L=45; W=58.5; e=0.035; h=1.6; lambda=0.190476; ls=120; w0=2.159; w1=0.847; ws=120; y0=18; y1=23.8}
! Header version: 2018
! Port assignment regex: !\s*Touchstone port\s*([0-9]+)\s*=\s*(CST MWS port|CST DS port)\s*([0-9]+|Zmin|Zmax)\s*\(\"(.*)\"\)(\s*mode\s*([0-9]+))?.*
! Touchstone port assignment:
! Touchstone port 1 = CST MWS port 1 ("")
# GHz S MA R 50
0                      0.9886202              -0
0.004                  0.9893069       -9.968108
0.008                  0.9912718       -19.84496
0.012                  0.9942414       -29.54393
0.016                   0.997809       -38.98685
0.02                    1.001494       -48.10659
0.024                   1.004814       -56.84817
0.028                   1.007347       -65.16892
0.032                   1.008792       -73.03775
0.036                   1.009003       -80.43445
0.04                    1.008004       -87.34903
0.044                   1.005982       -93.78146
0.048                   1.003258       -99.74173
0.052                    1.00024       -105.2499
0.056                  0.9973649       -110.3357
0.06                   0.9950343       -115.0376
0.064                  0.9935562       -119.4007
0.068                  0.9931017       -123.4737
0.072                  0.9936822       -127.3048
0.076                   0.995154       -130.9383
0.08                   0.9972471        -134.411
0.084                   0.999612       -137.7501
0.088                   1.001877       -140.9725
0.092                   1.003705       -144.0854
0.096                   1.004843       -147.0883
0.1                     1.005154       -149.9753
0.104                   1.004634       -152.7382
0.108                   1.003407       -155.3696
0.112                   1.001698       -157.8652
0.116                  0.9997996       -160.2259
0.12                   0.9980238        -162.459
0.124                  0.9966501       -164.5778
0.128                  0.9958838       -166.6008
0.132                  0.9958245       -168.5492
0.136                  0.9964532       -170.4446
0.14                   0.9976394        -172.306
0.144                  0.9991678       -174.1474
0.148                   1.000775       -175.9766
0.152                   1.002197       -177.7948
0.156                   1.003208       -179.5971
0.16                    1.003658        178.6256
0.164                   1.003494         176.885
0.168                   1.002762        175.1925
0.172                   1.001601        173.5576
0.176                   1.000217        171.9857
0.18                   0.9988447        170.4772
0.184                  0.9977131        169.0271
0.188                  0.9970047        167.6254
0.192                  0.9968264        166.2591
0.196                  0.9971938        164.9136
0.2                    0.9980297        163.5756
0.204                  0.9991808        162.2347
0.208                   1.000445        160.8852
0.212                   1.001605        159.5264
0.216                    1.00247        158.1627
0.22                      1.0029        156.8022
0.224                   1.002833        155.4555
0.228                    1.00229        154.1334
0.232                   1.001371        152.8453
0.236                    1.00024        151.5976
0.24                   0.9990913        150.3921
0.244                  0.9981199        149.2263
0.248                  0.9974883        148.0932
0.252                  0.9972983        146.9825
0.256                  0.9975746        145.8827
0.26                   0.9982613        144.7828
0.264                   0.999234        143.6739
0.268                   1.000321         142.551
0.272                   1.001334        141.4136
0.276                   1.002101        140.2655
0.28                    1.002495        139.1138
0.284                   1.002454        137.9682
0.288                   1.001989        136.8387
0.292                   1.001185        135.7343
0.296                   1.000184        134.6609
0.3                    0.9991583         133.621
0.304                  0.9982857        132.6128
0.308                  0.9977143        131.6303
0.312                    0.99754        130.6647
0.316                  0.9977885        129.7059
0.32                   0.9984127        128.7437
0.324                  0.9993006        127.7704
0.328                   1.000296        126.7812
0.332                   1.001226        125.7758
0.336                    1.00193        124.7576
0.34                    1.002289        123.7335
0.344                   1.002244        122.7124
0.348                   1.001805         121.704
0.352                    1.00105        120.7165
0.356                   1.000112        119.7561
0.36                   0.9991532        118.8249
0.364                  0.9983409        117.9213
0.368                  0.9978154        117.0399
0.372                  0.9976672        116.1725
0.376                  0.9979204        115.3093
0.38                    0.998529        114.4409
0.384                  0.9993854        113.5599
0.388                   1.000339        112.6621
0.392                   1.001225         111.747
0.396                   1.001888        110.8182
0.4                     1.002216        109.8825
0.404                   1.002151        108.9487
0.408                   1.001708         108.026
0.412                   1.000962        107.1227
0.416                   1.000046        106.2444
0.42                    0.999118        105.3933
0.424                  0.9983415        104.5677
0.428                  0.9978521        103.7622
0.432                  0.9977356        102.9685
0.436                  0.9980125        102.1772
0.44                   0.9986339        101.3791
0.444                  0.9994906         100.567
0.448                   1.000432        99.73692
0.452                   1.001295        98.88886
0.456                   1.001927        98.02656
0.46                    1.002218        97.15691
0.464                   1.002117        96.28881
0.468                   1.001642        95.43149
0.472                   1.000874        94.59309
0.476                  0.9999476        93.77908
0.48                   0.9990234        92.99142
0.484                  0.9982639        92.22808
0.488                  0.9978029        91.48334
0.492                   0.997722        90.74883
0.496                   0.998036        90.01491
0.5                    0.9986901        89.27245
0.504                   0.999569        88.51447
0.508                   1.000519        87.73727
0.512                   1.001371        86.94119
0.516                   1.001977        86.13037
0.52                    1.002228        85.31213
0.524                   1.002079        84.49561
0.528                   1.001555        83.69023
0.532                   1.000744        82.90411
0.536                  0.9997879        82.14254
0.54                   0.9988534        81.40712
0.544                  0.9981055        80.69536
0.548                  0.9976766        80.00106
0.552                  0.9976439        79.31536
0.556                  0.9980149        78.62838
0.56                   0.9987251        77.93086
0.564                  0.9996503         77.2159
0.568                   1.000628        76.48018
0.572                   1.001485         75.7245
0.576                    1.00207        74.95362
0.58                    1.002278         74.1754
0.584                   1.002071        73.39949
0.588                   1.001482        72.63561
0.592                   1.000612        71.89188
0.596                  0.9996117        71.17344
0.6                    0.9986574         70.4814
0.604                  0.9979178        69.81268
0.608                  0.9975254        69.16037
0.612                  0.9975519        68.51503
0.616                   0.997995        67.86627
0.62                   0.9987787        67.20462
0.624                  0.9997652        66.52333
0.628                   1.000781        65.81948
0.632                   1.001646        65.09451
0.636                   1.002206        64.35394
0.64                     1.00236        63.60639
0.644                   1.002078        62.86214
0.648                   1.001404        62.13129
0.652                   1.000455        61.42204
0.656                  0.9993951        60.73929
0.66                   0.9984112         60.0836
0.664                  0.9976779        59.45109
0.668                   0.997328        58.83395
0.672                  0.9974263        58.22193
0.676                  0.9979588        57.60402
0.68                   0.9988336        56.97053
0.684                  0.9998975        56.31483
0.688                   1.000963        55.63451
0.692                    1.00184        54.93178
0.696                   1.002372        54.21312
0.7                     1.002462        53.48807
0.704                   1.002089        52.76767
0.708                   1.001315        52.06252
0.712                   1.000272         51.3809
0.716                  0.9991426        50.72736
0.72                   0.9981254        50.10178
0.724                  0.9974029        49.49928
0.728                  0.9971067        48.91099
0.732                  0.9972936        48.32567
0.736                  0.9979346        47.73161
0.74                    0.998919        47.11883
0.744                   1.000074         46.4809
0.748                   1.001195        45.81603
0.752                   1.002083        45.12741
0.756                   1.002577        44.42265
0.76                    1.002585        43.71243
0.764                     1.0021        43.00867
0.768                   1.001202        42.32251
0.772                   1.000044        41.66234
0.776                  0.9988285        41.03227
0.78                   0.9977698        40.43131
0.784                  0.9970582        39.85341
0.788                   0.996824        39.28842
0.792                  0.9971134        38.72391
0.796                  0.9978794        38.14739
0.8                    0.9989889        37.54858
0.804                   1.000246        36.92129
0.808                   1.001428        36.26454
0.812                   1.002323        35.58267
0.816                   1.002767        34.88463
0.82                    1.002676        34.18239
0.824                   1.002058        33.48893
0.828                   1.001016        32.81597
0.832                  0.9997273        32.17194
0.836                  0.9984174         31.5604
0.84                    0.997319        30.97931
0.844                  0.9966302        30.42118
0.848                  0.9964791        29.87435
0.852                  0.9968983        29.32504
0.856                  0.9978191        28.75983
0.86                   0.9990815        28.16814
0.864                   1.000463        27.54416
0.868                   1.001719        26.88787
0.872                   1.002622          26.205
0.876                   1.003009        25.50607
0.88                    1.002803        24.80458
0.884                   1.002032        24.11467
0.888                   1.000824        23.44872
0.892                  0.9993871        22.81519
0.896                  0.9979726        22.21695
0.9                    0.9968333        21.65067
0.904                  0.9961763        21.10719
0.908                  0.9961256        20.57308
0.912                  0.9966977        20.03299
0.916                  0.9977972         19.4725
0.92                   0.9992329        18.88074
0.924                   1.000752         18.2524
0.928                   1.002082        17.58861
0.932                   1.002985         16.8968
0.936                   1.003293        16.18933
0.94                    1.002942        15.48143
0.944                   1.001982         14.7886
0.948                   1.000573        14.12398
0.952                  0.9989584        13.49595
0.956                  0.9974199        12.90655
0.96                   0.9962333         12.3509
0.964                  0.9956158        11.81784
0.968                  0.9956859        11.29182
0.972                  0.9964398         10.7557
0.976                  0.9977511         10.1939
0.98                   0.9993912        9.595245
0.984                   1.001071        8.955033
0.988                   1.002489        8.275834
0.992                   1.003391        7.567012
0.996                   1.003606         6.84311
1                       1.003085        6.121388
1.004                   1.001906        5.418918
1.008                   1.000267        4.749648
1.012                  0.9984499        4.121889
1.016                  0.9967743        3.536651
1.02                    0.995542        2.987181
1.024                   0.994981        2.459933
1.028                  0.9952026        1.936874
1.032                  0.9961785        1.398739
1.036                  0.9977443       0.8286007
1.04                   0.9996271       0.2150001
1.044                   1.001494      -0.4459825
1.048                   1.003012       -1.150061
1.052                   1.003903       -1.885524
1.056                   1.003999       -2.635237
1.06                    1.003265       -3.379516
1.064                   1.001814       -4.099415
1.068                  0.9998882       -4.779984
1.072                  0.9978172       -5.412996
1.076                   0.995966       -5.998671
1.08                   0.9946681       -6.545994
1.084                  0.9941648       -7.071394
1.088                  0.9945587       -7.595925
1.092                  0.9957927       -8.141384
1.096                  0.9976568       -8.726348
1.1                    0.9998248       -9.362649
1.104                   1.001912       -10.05326
1.108                   1.003544       -10.79185
1.112                   1.004419       -11.56388
1.116                   1.004367       -12.34914
1.12                    1.003373       -13.12494
1.124                   1.001592       -13.87008
1.128                  0.9993183        -14.5684
1.132                  0.9969419        -15.2117
1.136                  0.9948822       -15.80168
1.14                   0.9935126       -16.35008
1.144                  0.9930917       -16.87689
1.148                  0.9937125       -17.40694
1.152                  0.9952816       -17.96529
1.156                  0.9975332       -18.57255
1.16                    1.000075       -19.24106
1.164                   1.002456       -19.97269
1.168                   1.004251       -20.75862
1.172                   1.005126       -21.58086
1.176                   1.004904       -22.41529
1.18                    1.003599       -23.23558
1.184                   1.001409       -24.01753
1.188                  0.9986973       -24.74322
1.192                   0.995929       -25.40437
1.196                  0.9935935       -26.00441
1.2                    0.9921169       -26.55843
1.204                  0.9917824       -27.09092
1.208                  0.9926734       -27.63154
1.212                  0.9946531       -28.20956
1.216                  0.9973857       -28.84836
1.22                    1.000394       -29.56106
1.224                   1.003144       -30.34829
1.228                   1.005139       -31.19811
1.232                   1.006003        -32.0882
1.236                    1.00555       -32.98943
1.24                    1.003819        -33.8706
1.244                    1.00107       -34.70345
1.248                  0.9977525       -35.46747
1.252                  0.9944302       -36.15399
1.256                  0.9916886       -36.76836
1.26                   0.9900296       -37.32998
1.264                  0.9897757       -37.86934
1.268                  0.9910031       -38.42275
1.272                  0.9935226       -39.02541
1.276                  0.9969066       -39.70482
1.28                    1.000565       -40.47558
1.284                   1.003847       -41.33694
1.288                   1.006157       -42.27314
1.292                   1.007053       -43.25617
1.296                   1.006328       -44.25019
1.3                     1.004046       -45.21722
1.304                   1.000547       -46.12304
1.308                  0.9963923       -46.94312
1.312                  0.9922845       -47.66749
1.316                  0.9889483       -48.30367
1.32                   0.9869999       -48.87672
1.324                   0.986828       -49.42558
1.328                  0.9885109       -49.99626
1.332                   0.991791       -50.63299
1.336                  0.9961158       -51.36972
1.34                    1.000731       -52.22384
1.344                   1.004815        -53.1933
1.348                   1.007615       -54.25735
1.352                   1.008583       -55.38003
1.356                   1.007461       -56.51586
1.36                    1.004338       -57.61652
1.364                  0.9996513       -58.63825
1.368                   0.994126       -59.54921
1.372                  0.9886743       -60.33604
1.376                  0.9842437       -61.00816
1.38                    0.981648       -61.59837
1.384                  0.9814055        -62.1585
1.388                  0.9836244       -62.75038
1.392                  0.9879653       -63.43367
1.396                  0.9936901        -64.2543
1.4                    0.9997895        -65.2358
1.404                   1.005157       -66.37568
1.408                   1.008777       -67.64661
1.412                   1.009891       -69.00111
1.416                   1.008126       -70.37855
1.42                    1.003572       -71.71355
1.424                  0.9967908       -72.94517
1.428                  0.9887597       -74.02688
1.432                  0.9807438       -74.93623
1.436                     0.9741       -75.68263
1.44                   0.9700354       -76.31043
1.444                  0.9693635       -76.89452
1.448                  0.9723134       -77.52771
1.452                  0.9784488       -78.30231
1.456                   0.986723        -79.2914
1.46                   0.9956541       -80.53543
1.464                   1.003576       -82.03639
1.468                   1.008909       -83.75985
1.472                   1.010404       -85.64135
1.476                   1.007336       -87.59541
1.48                   0.9996389       -89.52546
1.484                  0.9879651       -91.33513
1.488                   0.973662       -92.94173
1.492                   0.958649        -94.2927
1.496                  0.9451723       -95.38383
1.5                    0.9354349       -96.27452
1.504                  0.9311408       -97.09145
1.508                  0.9330575        -98.0138
1.512                   0.940731       -99.23979
1.516                   0.952461        -100.947
1.52                   0.9655336       -103.2617
1.524                  0.9766161       -106.2483
1.528                  0.9821826       -109.9154
1.532                  0.9788804       -114.2317
1.536                  0.9637986       -119.1423
1.54                   0.9346429       -124.5827
1.544                  0.8898374        -130.488
1.548                  0.8285692       -136.7989
1.552                  0.7507948       -143.4666
1.556                  0.6572129       -150.4582
1.56                   0.5492135       -157.7697
1.564                  0.4288091        -165.461
1.568                  0.2985612       -173.7941
1.572                  0.1616066        175.9067
1.576                 0.02644367         132.051
1.58                     0.12357       -4.163728
1.584                  0.2615761       -15.97661
1.588                  0.3938667        -24.6255
1.592                  0.5170563       -32.47078
1.596                  0.6284467       -39.90251
1.6                    0.7258762       -47.01325
1.604                  0.8077847       -53.81089
1.608                  0.8732851       -60.26862
1.612                  0.9222199       -66.34109
1.616                  0.9551955       -71.97101
1.62                   0.9735856       -77.09388
1.624                  0.9795001       -81.64342
1.628                  0.9757027       -85.55989
1.632                  0.9654611       -88.80263
1.636                  0.9523061       -91.36647
1.64                   0.9396923       -93.29873
1.644                  0.9305783       -94.70979
1.648                  0.9270047       -95.76773
1.652                  0.9297947       -96.67259
1.656                  0.9384983        -97.6167
1.66                   0.9516097       -98.74701
1.664                  0.9669804       -100.1439
1.668                  0.9822873       -101.8202
1.672                  0.9954375       -103.7348
1.676                   1.004852       -105.8103
1.68                    1.009627       -107.9513
1.684                   1.009582       -110.0576
1.688                   1.005233       -112.0366
1.692                  0.9976796       -113.8132
1.696                  0.9884429       -115.3389
1.7                    0.9792326       -116.6003
1.704                  0.9716843       -117.6229
1.708                  0.9670909       -118.4694
1.712                  0.9661837       -119.2295
1.716                  0.9690189       -120.0016
1.72                   0.9749995        -120.874
1.724                  0.9830263       -121.9079
1.728                  0.9917296       -123.1295
1.732                  0.9997224       -124.5299
1.736                   1.005824       -126.0714
1.74                    1.009223       -127.6967
1.744                    1.00957       -129.3391
1.748                      1.007       -130.9317
1.752                   1.002093       -132.4164
1.756                  0.9957756       -133.7517
1.76                   0.9891712       -134.9189
1.764                  0.9834227       -135.9261
1.768                  0.9795013       -136.8076
1.772                  0.9780422       -137.6183
1.776                  0.9792377       -138.4237
1.78                   0.9828187       -139.2868
1.784                  0.9881197        -140.257
1.788                  0.9942181       -141.3613
1.792                   1.000105       -142.6021
1.796                   1.004855       -143.9591
1.8                     1.007771       -145.3946
1.804                   1.008471       -146.8606
1.808                    1.00694       -148.3056
1.812                   1.003512        -149.683
1.816                  0.9988147       -150.9565
1.82                   0.9936663       -152.1066
1.824                  0.9889426       -153.1332
1.828                  0.9854341       -154.0569
1.832                  0.9837103       -154.9151
1.836                  0.9840255       -155.7559
1.84                   0.9862796       -156.6286
1.844                  0.9900467       -157.5748
1.848                  0.9946626       -158.6214
1.852                  0.9993478       -159.7765
1.856                   1.003342       -161.0299
1.86                    1.006026       -162.3559
1.864                   1.007011        -163.718
1.868                   1.006193       -165.0753
1.872                   1.003755       -166.3885
1.876                   1.000136       -167.6252
1.88                   0.9959589       -168.7652
1.884                  0.9919286       -169.8038
1.888                  0.9887154       -170.7527
1.892                  0.9868446       -171.6384
1.896                  0.9866061       -172.4978
1.9                    0.9880083       -173.3713
1.904                  0.9907832       -174.2954
1.908                    0.99444       -175.2963
1.912                  0.9983572        -176.386
1.916                    1.00189       -177.5608
1.92                    1.004478       -178.8035
1.924                   1.005727        179.9138
1.928                    1.00547        178.6247
1.932                   1.003781        177.3631
1.936                   1.000964        176.1588
1.94                   0.9974993        175.0324
1.944                  0.9939676        173.9924
1.948                  0.9909535        173.0332
1.952                  0.9889498        172.1364
1.956                  0.9882743        171.2732
1.96                   0.9890172        170.4099
1.964                   0.991029        169.5139
1.968                  0.9939516        168.5595
1.972                   0.997285        167.5318
1.976                   1.000475        166.4291
1.98                    1.003004        165.2622
1.984                   1.004475        164.0522
1.988                   1.004669        162.8267
1.992                   1.003574        161.6157
1.996                   1.001384        160.4466
2                      0.9984658        159.3409
2.004                   0.995302        158.3098
2.008                  0.9924098        157.3532
2.012                  0.9902592         156.459
2.016                  0.9891931         155.605
2.02                   0.9893705        154.7628
2.024                  0.9907418        153.9029
2.028                  0.9930598        152.9997
2.032                  0.9959261        152.0358
2.036                  0.9988609        151.0049
2.04                    1.001383        149.9122
2.044                   1.003087        148.7727
2.048                   1.003705         147.609
2.052                   1.003147        146.4476
2.056                    1.00151        145.3146
2.06                   0.9990617        144.2318
2.064                  0.9961976        143.2137
2.068                  0.9933797        142.2648
2.072                  0.9910607        141.3788
2.076                  0.9896105        140.5393
2.08                   0.9892543        139.7227
2.084                  0.9900358        138.9018
2.088                  0.9918106        138.0512
2.092                  0.9942726        137.1508
2.096                  0.9970086        136.1899
2.1                     0.999566        135.1679
2.104                   1.001527        134.0943
2.108                   1.002572        132.9871
2.112                   1.002531        131.8695
2.116                   1.001405        130.7666
2.12                   0.9993633        129.7013
2.124                  0.9967231        128.6914
2.128                  0.9938964        127.7463
2.132                  0.9913263        126.8655
2.136                  0.9894175        126.0385
2.14                   0.9884682        125.2459
2.144                  0.9886211         124.463
2.148                  0.9898384        123.6636
2.152                  0.9919087        122.8247
2.156                  0.9944819        121.9302
2.16                   0.9971289        120.9734
2.164                  0.9994091         119.958
2.168                    1.00094         118.897
2.172                   1.001458        117.8106
2.176                   1.000853         116.723
2.18                   0.9991944        115.6592
2.184                  0.9967121         114.641
2.188                  0.9937712        113.6837
2.192                  0.9908146        112.7934
2.196                  0.9882953        111.9658
2.2                    0.9866037        111.1865
2.204                  0.9860021        110.4326
2.208                  0.9865786        109.6768
2.212                  0.9882291        108.8917
2.216                  0.9906733        108.0545
2.22                   0.9934974        107.1507
2.224                   0.996221        106.1766
2.228                  0.9983729        105.1392
2.232                  0.9995636        104.0558
2.236                  0.9995461        102.9503
2.24                   0.9982551        101.8508
2.244                  0.9958213        100.7847
2.248                  0.9925577        99.77515
2.252                  0.9889171        98.83726
2.256                  0.9854283        97.97489
2.26                   0.9826134        97.17949
2.264                  0.9809026        96.43045
2.268                  0.9805577        95.69795
2.272                  0.9816213        94.94768
2.276                   0.983901        94.14657
2.28                   0.9869954        93.26846
2.284                  0.9903542        92.29856
2.288                  0.9933644        91.23571
2.292                  0.9954448        90.09247
2.296                   0.996137         88.8932
2.3                     0.995178        87.67054
2.304                  0.9925478          86.461
2.308                  0.9884829        85.29978
2.312                   0.983455        84.21539
2.316                  0.9781128        83.22455
2.32                   0.9731898          82.328
2.324                  0.9693893        81.50856
2.328                  0.9672611        80.73189
2.332                  0.9670935        79.95103
2.336                  0.9688448        79.11383
2.34                   0.9721293        78.17189
2.344                   0.976266        77.08898
2.348                  0.9803774        75.84699
2.352                   0.983522        74.44844