! TOUCHSTONE file generated by CST MICROWAVE STUDIO
! Date and time: Tue Jun 14 12:12:51 2022
! Project name: AppElm_antenne_patch_FR4.cst
! Parameters = {L=45; W=58.5; e=0.035; h=1.6; lambda=0.190476; ls=120; w0=3.048; w1=0.847; ws=120; y0=18; y1=23.8}
! Header version: 2018
! Port assignment regex: !\s*Touchstone port\s*([0-9]+)\s*=\s*(CST MWS port|CST DS port)\s*([0-9]+|Zmin|Zmax)\s*\(\"(.*)\"\)(\s*mode\s*([0-9]+))?.*
! Touchstone port assignment:
! Touchstone port 1 = CST MWS port 1 ("")
# GHz S MA R 50
0                      0.9859154              -0
0.004                  0.9867265       -9.988711
0.008                  0.9890509        -19.8826
0.012                  0.9925785       -29.59193
0.016                  0.9968454       -39.03616
0.02                    1.001301       -48.14668
0.024                   1.005386       -56.86778
0.028                   1.008606       -65.15643
0.032                   1.010592       -72.98137
0.036                   1.011146       -80.32197
0.04                    1.010258       -87.16743
0.044                   1.008105       -93.51642
0.048                   1.005021       -99.37729
0.052                   1.001457       -104.7684
0.056                  0.9979118       -109.7184
0.06                    0.994868       -114.2653
0.064                  0.9927224       -118.4556
0.068                  0.9917308       -122.3408
0.072                  0.9919731       -125.9736
0.076                  0.9933484       -129.4039
0.08                    0.995595       -132.6746
0.084                  0.9983381       -135.8184
0.088                    1.00115       -138.8567
0.092                   1.003615       -141.7997
0.096                   1.005389       -144.6477
0.1                     1.006247       -147.3939
0.104                   1.006107       -150.0276
0.108                   1.005039       -152.5371
0.112                   1.003246       -154.9133
0.116                   1.001033       -157.1518
0.12                   0.9987595       -159.2551
0.124                  0.9967808       -161.2332
0.128                   0.995396       -163.1031
0.132                  0.9948009       -164.8868
0.136                  0.9950605       -166.6088
0.14                   0.9961022       -168.2927
0.144                  0.9977313       -169.9581
0.148                  0.9996672       -171.6183
0.152                   1.001591       -173.2793
0.156                   1.003197       -174.9389
0.16                     1.00424       -176.5892
0.164                   1.004572       -178.2172
0.168                   1.004162       -179.8084
0.172                   1.003098        178.6514
0.176                   1.001567        177.1729
0.18                   0.9998289        175.7619
0.184                  0.9981718         174.418
0.188                  0.9968644        173.1342
0.192                  0.9961125        171.8979
0.196                  0.9960269        170.6929
0.2                     0.996606        169.5021
0.204                  0.9977381        168.3098
0.208                  0.9992227        167.1045
0.212                   1.000806        165.8802
0.216                   1.002224        164.6374
0.22                    1.003246        163.3825
0.224                    1.00371        162.1261
0.228                   1.003551        160.8817
0.232                   1.002803        159.6629
0.236                   1.001602        158.4812
0.24                    1.000152        157.3444
0.244                  0.9986996        156.2546
0.248                   0.997487        155.2085
0.252                  0.9967146        154.1971
0.256                  0.9965064        153.2077
0.26                   0.9968893        152.2259
0.264                  0.9977903        151.2377
0.268                  0.9990495        150.2324
0.272                   1.000449        149.2039
0.276                    1.00175        148.1516
0.28                    1.002735        147.0805
0.284                   1.003242        145.9999
0.288                    1.00319         144.922
0.292                   1.002593        143.8598
0.296                   1.001558        142.8247
0.3                     1.000263        141.8247
0.304                  0.9989291        140.8634
0.308                  0.9977845        139.9384
0.312                  0.9970233        139.0427
0.316                  0.9967731        138.1652
0.32                   0.9970727        137.2926
0.324                  0.9978667         136.412
0.328                  0.9990148         135.513
0.332                   1.000317        134.5894
0.336                   1.001551        133.6401
0.34                    1.002505        132.6696
0.344                   1.003018        131.6864
0.348                   1.003006         130.702
0.352                   1.002473         129.729
0.356                   1.001514        128.7785
0.36                    1.000294        127.8588
0.364                   0.999023        126.9736
0.368                  0.9979212        126.1213
0.372                  0.9971782        125.2955
0.376                   0.996922        124.4856
0.38                   0.9971951        123.6791
0.384                  0.9979489        122.8635
0.388                  0.9990505        122.0286
0.392                   1.000308        121.1683
0.396                   1.001504        120.2815
0.4                     1.002432        119.3722
0.404                   1.002933        118.4488
0.408                   1.002921        117.5227
0.412                     1.0024        116.6061
0.416                   1.001461        115.7103
0.42                    1.000265        114.8432
0.424                  0.9990194        114.0088
0.428                  0.9979416        113.2054
0.432                  0.9972189        112.4269
0.436                  0.9969775        111.6628
0.44                   0.9972595        110.9007
0.444                  0.9980149        110.1283
0.448                  0.9991115        109.3355
0.452                   1.000357        108.5164
0.456                   1.001535        107.6699
0.46                     1.00244        106.8003
0.464                   1.002915        105.9162
0.468                   1.002877        105.0288
0.472                   1.002332        104.1506
0.476                   1.001374        103.2926
0.48                    1.000168         102.463
0.484                  0.9989233        101.6653
0.488                  0.9978578        100.8979
0.492                  0.9971584        100.1541
0.496                  0.9969483        99.42336
0.5                     0.997265        98.69316
0.504                  0.9980534         97.9511
0.508                  0.9991751        97.18724
0.512                   1.000433        96.39578
0.516                   1.001607        95.57616
0.52                    1.002492        94.73293
0.524                   1.002931        93.87504
0.528                   1.002847        93.01424
0.532                   1.002252        92.16303
0.536                   1.001248        91.33264
0.54                    1.000009          90.531
0.544                  0.9987497        89.76134
0.548                  0.9976915        89.02158
0.552                  0.9970213        88.30456
0.556                  0.9968583        87.59923
0.56                   0.9972332        86.89264
0.564                  0.9980808        86.17226
0.568                  0.9992524        85.42822
0.572                   1.000542        84.65507
0.576                   1.001724        83.85274
0.58                    1.002588        83.02639
0.584                   1.002983        82.18563
0.588                   1.002837         81.3427
0.592                   1.002172        80.51051
0.596                   1.001102        79.70034
0.6                    0.9998116        78.91995
0.604                  0.9985267        78.17214
0.608                  0.9974738        77.45415
0.612                  0.9968399        76.75806
0.616                  0.9967394        76.07213
0.62                   0.9971926        75.38285
0.624                  0.9981214        74.67744
0.628                  0.9993632        73.94611
0.632                   1.000699        73.18383
0.636                   1.001894        72.39119
0.64                    1.002737        71.57422
0.644                   1.003077         70.7433
0.648                   1.002851        69.91142
0.652                   1.002096        69.09193
0.656                   1.000939        68.29624
0.66                   0.9995818        67.53187
0.664                  0.9982616        66.80103
0.668                  0.9972122        66.10015
0.672                   0.996621        65.42033
0.676                  0.9965963        64.74889
0.68                   0.9971456        64.07167
0.684                  0.9981739        63.37556
0.688                  0.9995013        62.65088
0.692                   1.000894        61.89312
0.696                   1.002105         61.1037
0.7                      1.00292        60.28968
0.704                   1.003191        59.46245
0.708                   1.002868        58.63584
0.712                   1.002001        57.82376
0.716                   1.000738        57.03777
0.72                   0.9992983         56.2851
0.724                  0.9979338        55.56723
0.728                  0.9968871        54.87954
0.732                  0.9963462          54.212
0.736                  0.9964108        53.55083
0.74                   0.9970734        52.88106
0.744                  0.9982194        52.18918
0.748                  0.9996473         51.4657
0.752                   1.001105         50.7067
0.756                   1.002334        49.91463
0.76                    1.003115        49.09773
0.764                   1.003305        48.26859
0.768                   1.002866        47.44208
0.772                   1.001867        46.63269
0.776                   1.000479        45.85216
0.78                    0.998943        45.10734
0.784                  0.9975278        44.39889
0.788                  0.9964854        43.72096
0.792                  0.9960047        43.06211
0.796                  0.9961754        42.40731
0.8                    0.9969716        41.74063
0.804                  0.9982554        41.04818
0.808                   0.999801        40.32061
0.812                   1.001335        39.55479
0.816                   1.002584        38.75433
0.82                    1.003325        37.92888
0.824                   1.003421        37.09243
0.828                   1.002847        36.26096
0.832                   1.001697        35.44972
0.836                   1.000166        34.67062
0.84                   0.9985196        33.93005
0.844                   0.997048        33.22767
0.848                  0.9960139        32.55619
0.852                  0.9956055        31.90259
0.856                  0.9959013        31.25036
0.86                   0.9968542        30.58248
0.864                  0.9982989         29.8846
0.868                  0.9999813        29.14762
0.872                   1.001604         28.3693
0.876                   1.002877        27.55461
0.88                    1.003571        26.71481
0.884                   1.003557        25.86549
0.888                   1.002829        25.02395
0.892                   1.001504        24.20629
0.896                  0.9998081        23.42458
0.9                    0.9980361        22.68472
0.904                  0.9965007        21.98517
0.908                  0.9954774        21.31701
0.912                  0.9951543        20.66535
0.916                   0.995596        20.01198
0.92                   0.9967307        19.33864
0.924                  0.9983616        18.63045
0.928                   1.000202         17.8786
0.932                   1.001926        17.08189
0.936                   1.003226        16.24685
0.94                    1.003866        15.38662
0.944                   1.003725        14.51864
0.948                   1.002816        13.66174
0.952                   1.001287        12.83296
0.956                  0.9993993        12.04464
0.96                   0.9974801        11.30206
0.964                  0.9958694        10.60235
0.968                  0.9948573        9.934638
0.972                  0.9946318        9.281899
0.976                   0.995242        8.623906
0.98                   0.9965873        7.940973
0.984                  0.9984344        7.217602
0.988                   1.000458        6.445302
0.992                   1.002301        5.624052
0.996                   1.003632        4.762236
1                       1.004208         3.87514
1.004                   1.003917        2.982353
1.008                   1.002796        2.104508
1.012                   1.001027         1.25982
1.016                  0.9989106       0.4609118
1.02                   0.9968151      -0.2875665
1.024                  0.9951115      -0.9900723
1.028                  0.9941084         -1.6597
1.032                  0.9939944       -2.316042
1.036                  0.9948002       -2.981696
1.04                   0.9963923       -3.678079
1.044                  0.9984942        -4.42145
1.048                   1.000736       -5.219957
1.052                   1.002721       -6.072254
1.056                   1.004091       -6.967826
1.06                    1.004595       -7.888845
1.064                   1.004128       -8.813171
1.068                   1.002755       -9.717983
1.072                   1.000698       -10.58367
1.076                  0.9983057       -11.39712
1.08                   0.9959941       -12.15442
1.084                  0.9941734       -12.86178
1.088                   0.993175       -13.53499
1.092                  0.9931889       -14.19678
1.096                  0.9942265       -14.87256
1.1                    0.9961148       -15.58593
1.104                   0.998526       -16.35417
1.108                   1.001036       -17.18502
1.112                   1.003199       -18.07562
1.116                   1.004625       -19.01291
1.12                    1.005048       -19.97605
1.124                   1.004374       -20.93977
1.128                   1.002697       -21.87856
1.132                   1.000287        -22.7709
1.136                  0.9975535       -23.60305
1.14                   0.9949691       -24.37177
1.144                  0.9929943       -25.08545
1.148                  0.9919909        -25.7631
1.152                  0.9921544       -26.43118
1.156                  0.9934728       -27.11885
1.16                   0.9957265       -27.85245
1.164                   0.998525        -28.6506
1.168                   1.001376       -29.52085
1.172                   1.003773       -30.45843
1.176                   1.005281       -31.44729
1.18                    1.005616        -32.4628
1.184                   1.004691       -33.47581
1.188                   1.002636       -34.45733
1.192                  0.9997804       -35.38329
1.196                  0.9966049       -36.23886
1.2                    0.9936597       -37.02149
1.204                  0.9914704       -37.74209
1.208                   0.990442       -38.42369
1.212                  0.9907795       -39.09769
1.216                  0.9924464       -39.79804
1.22                   0.9951652       -40.55487
1.224                  0.9984656       -41.38877
1.228                   1.001767       -42.30715
1.232                   1.004482       -43.30311
1.236                   1.006115       -44.35681
1.24                    1.006351       -45.43884
1.244                   1.005108       -46.51493
1.248                   1.002559       -47.55136
1.252                  0.9991085       -48.52046
1.256                  0.9953306       -49.40558
1.26                   0.9918787       -50.20471
1.264                  0.9893702       -50.93178
1.268                  0.9882731       -51.61515
1.272                  0.9888139        -52.2928
1.276                  0.9909275       -53.00541
1.28                   0.9942632       -53.78854
1.284                  0.9982442       -54.66583
1.288                    1.00217       -55.64492
1.292                   1.005337       -56.71627
1.296                   1.007163       -57.85518
1.3                     1.007283       -59.02584
1.304                   1.005614        -60.1869
1.308                   1.002379       -61.29787
1.312                  0.9980784       -62.32559
1.316                  0.9934199       -63.25026
1.32                   0.9892031       -64.06996
1.324                  0.9861825       -64.80241
1.328                  0.9849272       -65.48325
1.332                  0.9857048       -66.16009
1.336                  0.9884206       -66.88371
1.34                   0.9926252       -67.69807
1.344                  0.9975911       -68.63194
1.348                    1.00244       -69.69389
1.352                   1.006298       -70.87123
1.356                   1.008438       -72.13257
1.36                    1.008411       -73.43297
1.364                   1.006116       -74.72067
1.368                   1.001838       -75.94466
1.372                  0.9962099       -77.06279
1.376                  0.9901346       -78.04928
1.38                   0.9846408         -78.901
1.384                  0.9807083       -79.64055
1.388                  0.9790834       -80.31441
1.392                  0.9801224       -80.98564
1.396                  0.9837044        -81.7219
1.4                    0.9892382       -82.58189
1.404                  0.9957614       -83.60404
1.408                   1.002109       -84.79985
1.412                   1.007114       -86.15282
1.416                   1.009801       -87.62194
1.42                    1.009547       -89.14829
1.424                   1.006189       -90.66326
1.428                   1.000073        -92.0979
1.432                  0.9920292       -93.39312
1.436                  0.9832761        -94.5102
1.44                   0.9752444        -95.4407
1.444                  0.9693408        -96.2129
1.448                  0.9666787        -96.8915
1.452                  0.9678356       -97.56855
1.456                  0.9727004        -98.3458
1.46                   0.9804607       -99.31383
1.464                  0.9897341        -100.534
1.468                  0.9988072       -102.0281
1.472                   1.005923       -103.7776
1.476                   1.009557        -105.728
1.48                    1.008653       -107.7982
1.484                   1.002791       -109.8904
1.488                  0.9922902       -111.9007
1.492                  0.9782269       -113.7324
1.496                  0.9623627       -115.3111
1.5                    0.9469504       -116.6042
1.504                  0.9344032       -117.6397
1.508                  0.9268444       -118.5182
1.512                  0.9256097       -119.4069
1.516                  0.9308482       -120.5127
1.52                   0.9413598       -122.0389
1.524                  0.9547333       -124.1466
1.528                  0.9677142       -126.9321
1.532                  0.9766631       -130.4282
1.536                  0.9779811       -134.6178
1.54                    0.968437       -139.4534
1.544                  0.9453871       -144.8732
1.548                  0.9069072       -150.8142
1.552                   0.851859       -157.2205
1.556                  0.7799082        -164.051
1.56                   0.6915114       -171.2899
1.564                  0.5878752       -178.9678
1.568                  0.4709071        172.7813
1.572                  0.3431948        163.5224
1.576                  0.2082606        151.5269
1.58                  0.07497904        122.0202
1.584                 0.09048822       -4.939552
1.588                  0.2254874       -29.05948
1.592                  0.3598727       -40.48497
1.596                  0.4865535       -49.57282
1.6                    0.6021698       -57.74158
1.604                  0.7042179       -65.36533
1.608                  0.7908698       -72.55954
1.612                  0.8610023       -79.34726
1.616                  0.9142459       -85.70916
1.62                   0.9510212       -91.60252
1.624                  0.9725507       -96.97071
1.628                  0.9808333       -101.7508
1.632                  0.9785714       -105.8827
1.636                  0.9690325       -109.3214
1.64                    0.955818       -112.0545
1.644                  0.9425291         -114.12
1.648                  0.9323383       -115.6201
1.652                    0.92754       -116.7191
1.656                  0.9292037       -117.6207
1.66                   0.9370661       -118.5273
1.664                  0.9497181       -119.5995
1.668                  0.9650147       -120.9307
1.672                  0.9805664        -122.543
1.676                  0.9941774       -124.4002
1.68                    1.004159       -126.4266
1.684                   1.009511       -128.5256
1.688                   1.009981       -130.5949
1.692                   1.006043        -132.539
1.696                  0.9987846       -134.2799
1.7                    0.9897337       -135.7671
1.704                  0.9806246       -136.9854
1.708                  0.9731228       -137.9598
1.712                  0.9685455       -138.7532
1.716                  0.9676359       -139.4558
1.72                   0.9704468       -140.1672
1.724                  0.9763665       -140.9757
1.728                  0.9842763        -141.942
1.732                  0.9927925       -143.0911
1.736                   1.000527       -144.4124
1.74                    1.006315       -145.8665
1.744                    1.00938       -147.3947
1.748                   1.009422       -148.9297
1.752                   1.006632        -150.405
1.756                   1.001645       -151.7645
1.76                   0.9954253       -152.9701
1.764                  0.9891086       -154.0076
1.768                  0.9838128       -154.8901
1.772                  0.9804463       -155.6563
1.776                  0.9795507       -156.3635
1.78                   0.9812117       -157.0771
1.784                  0.9850605       -157.8566
1.788                  0.9903633       -158.7457
1.792                  0.9961735       -159.7644
1.796                   1.001509       -160.9086
1.8                     1.005519       -162.1527
1.804                   1.007614       -163.4555
1.808                   1.007546       -164.7682
1.812                   1.005427       -166.0418
1.816                   1.001703       -167.2339
1.82                   0.9970723       -168.3158
1.824                  0.9923664       -169.2765
1.828                  0.9884091       -170.1252
1.832                  0.9858745       -170.8899
1.836                  0.9851695       -171.6123
1.84                   0.9863672         -172.34
1.844                  0.9892033       -173.1173
1.848                  0.9931378       -173.9766
1.852                  0.9974637       -174.9339
1.856                   1.001438       -175.9869
1.86                    1.004412       -177.1166
1.864                   1.005927        -178.292
1.868                    1.00579       -179.4754
1.872                   1.004086        179.3712
1.876                   1.001157        178.2805
1.88                    0.997545        177.2746
1.884                  0.9938917        176.3617
1.888                  0.9908322        175.5343
1.892                  0.9888842        174.7706
1.896                  0.9883577        174.0383
1.9                    0.9893044        173.3007
1.904                   0.991516         172.524
1.908                  0.9945708        171.6829
1.912                  0.9979171        170.7653
1.916                   1.000975         169.773
1.92                    1.003236         168.721
1.924                   1.004346        167.6337
1.928                   1.004156        166.5411
1.932                   1.002742        165.4732
1.936                    1.00038        164.4555
1.94                   0.9975022        163.5053
1.944                  0.9946167        162.6281
1.948                  0.9922214        161.8174
1.952                  0.9907166        161.0556
1.956                  0.9903365        160.3169
1.96                   0.9911122        159.5728
1.964                   0.992871        158.7969
1.968                  0.9952749        157.9697
1.972                  0.9978864        157.0821
1.976                   1.000249        156.1359
1.98                    1.001967        155.1433
1.984                   1.002768        154.1241
1.988                   1.002543        153.1018
1.992                   1.001363        152.1003
1.996                  0.9994545        151.1393
2                      0.9971645        150.2319
2.004                  0.9948941        149.3816
2.008                  0.9930293        148.5826
2.012                  0.9918759        147.8206
2.016                  0.9916056        147.0751
2.02                   0.9922305         146.324
2.024                  0.9936061        145.5469
2.028                   0.995463        144.7294
2.032                  0.9974586        143.8648
2.036                  0.9992406        142.9551
2.04                    1.000508        142.0102
2.044                   1.001058        141.0455
2.048                    1.00082        140.0797
2.052                  0.9998573        139.1307
2.056                  0.9983536        138.2134
2.06                   0.9965789         137.337
2.064                  0.9948384        136.5037
2.068                  0.9934212        135.7083
2.072                  0.9925483        134.9393
2.076                  0.9923376        134.1814
2.08                   0.9927876        133.4179
2.084                  0.9937814        132.6343
2.088                  0.9951137        131.8201
2.092                  0.9965308         130.971
2.096                  0.9977769         130.089
2.1                    0.9986388        129.1816
2.104                  0.9989787        128.2604
2.108                  0.9987542        127.3385
2.112                  0.9980202        126.4288
2.116                  0.9969142        125.5413
2.12                   0.9956284        124.6819
2.124                  0.9943742        123.8516
2.128                  0.9933449        123.0461
2.132                  0.9926835        122.2574
2.136                  0.9924599        121.4749
2.14                   0.9926646        120.6879
2.144                  0.9932144        119.8869
2.148                  0.9939739        119.0656
2.152                  0.9947817        118.2217
2.156                  0.9954811        117.3566
2.16                   0.9959465        116.4752
2.164                  0.9961017        115.5845
2.168                  0.9959284        114.6921
2.172                  0.9954636         113.805
2.176                   0.994787        112.9287
2.18                   0.9940032        112.0657
2.184                  0.9932202         111.216
2.188                  0.9925306        110.3773
2.192                   0.991997        109.5453
2.196                  0.9916461        108.7154
2.2                    0.9914687        107.8828
2.204                  0.9914295        107.0439
2.208                  0.9914772        106.1963
2.212                  0.9915586        105.3395
2.216                  0.9916295        104.4737
2.22                   0.9916604           103.6
2.224                  0.9916381        102.7198
2.228                  0.9915614        101.8338
2.232                  0.9914343        100.9423
2.236                  0.9912572         100.045
2.24                   0.9910223        99.14144
2.244                  0.9907102        98.23113
2.248                  0.9902938        97.31444
2.252                  0.9897461        96.39257
2.256                  0.9890502        95.46786
2.26                    0.988211        94.54328
2.264                  0.9872622        93.62196
2.268                  0.9862679        92.70619
2.272                   0.985317        91.79658
2.276                  0.9845091        90.89126
2.28                   0.9839346        89.98562
2.284                  0.9836524        89.07245
2.288                  0.9836707        88.14286
2.292                   0.983933        87.18772
2.296                  0.9843193         86.1992
2.3                    0.9846568        85.17259
2.304                  0.9847456        84.10748
2.308                  0.9843924        83.00831
2.312                  0.9834485        81.88409
2.316                  0.9818424        80.74716
2.32                   0.9796049        79.61116
2.324                   0.976876        78.48849
2.328                  0.9738927        77.38749
2.332                  0.9709563        76.30997
2.336                  0.9683828        75.24954
2.34                   0.9664411        74.19122
2.344                  0.9652936        73.11275
2.348                  0.9649484        71.98758
2.352                  0.9652361         70.7891