! TOUCHSTONE file generated by CST MICROWAVE STUDIO
! Date and time: Tue Jun 14 12:12:50 2022
! Project name: AppElm_antenne_patch_FR4.cst
! Parameters = {L=45; W=58.5; e=0.035; h=1.6; lambda=0.190476; ls=120; w0=2.921; w1=0.847; ws=120; y0=18; y1=23.8}
! Header version: 2018
! Port assignment regex: !\s*Touchstone port\s*([0-9]+)\s*=\s*(CST MWS port|CST DS port)\s*([0-9]+|Zmin|Zmax)\s*\(\"(.*)\"\)(\s*mode\s*([0-9]+))?.*
! Touchstone port assignment:
! Touchstone port 1 = CST MWS port 1 ("")
# GHz S MA R 50
0                      0.9862452              -0
0.004                  0.9870409        -9.98489
0.008                   0.989321       -19.87545
0.012                  0.9927802       -29.58234
0.016                  0.9969615       -39.02537
0.02                    1.001323       -48.13612
0.024                   1.005316       -56.85897
0.028                   1.008452       -65.15097
0.032                   1.010374       -72.98084
0.036                   1.010888       -80.32801
0.04                    1.009989       -87.18173
0.044                   1.007853       -93.54086
0.048                   1.004814       -99.41391
0.052                   1.001316       -104.8194
0.056                  0.9978505        -109.786
0.06                   0.9948912        -114.352
0.064                  0.9928235       -118.5634
0.068                  0.9918932       -122.4715
0.072                  0.9921727       -126.1285
0.076                  0.9935558       -129.5835
0.08                   0.9957808       -132.8786
0.084                  0.9984766        -136.046
0.088                   1.001222       -139.1065
0.092                   1.003611         -142.07
0.096                   1.005311       -144.9367
0.1                     1.006107       -147.7001
0.104                   1.005925       -150.3496
0.108                   1.004842       -152.8742
0.112                   1.003062       -155.2652
0.116                   1.000889        -157.519
0.12                   0.9986761       -159.6386
0.124                  0.9967693       -161.6342
0.128                  0.9954561       -163.5231
0.132                  0.9949217       -165.3272
0.136                  0.9952217       -167.0705
0.14                    0.996277       -168.7761
0.144                  0.9978909       -170.4629
0.148                   0.999786       -172.1438
0.152                    1.00165       -173.8239
0.156                   1.003187        -175.501
0.16                    1.004163       -177.1669
0.164                   1.004441        -178.809
0.168                   1.003998         179.587
0.172                   1.002927        178.0345
0.176                   1.001417        176.5439
0.18                   0.9997256        175.1203
0.184                  0.9981314        173.7625
0.188                  0.9968935        172.4635
0.192                  0.9962066        171.2106
0.196                  0.9961703        169.9879
0.2                    0.9967751        168.7786
0.204                  0.9979049        167.5678
0.208                  0.9993601        166.3445
0.212                   1.000892        165.1035
0.216                   1.002245        163.8457
0.22                    1.003199        162.5773
0.224                   1.003605        161.3093
0.228                   1.003405        160.0546
0.232                   1.002643        158.8264
0.236                   1.001454        157.6355
0.24                    1.000043        156.4891
0.244                  0.9986475        155.3888
0.248                  0.9975019        154.3308
0.252                  0.9967947        153.3062
0.256                  0.9966386        152.3023
0.26                   0.9970519        151.3052
0.264                  0.9979558        150.3016
0.268                  0.9991903        149.2814
0.272                   1.000542        148.2389
0.276                    1.00178        147.1743
0.28                    1.002697        146.0926
0.284                   1.003143        145.0031
0.288                   1.003048        143.9179
0.292                   1.002432        142.8493
0.296                   1.001405        141.8081
0.3                     1.000145        140.8018
0.304                  0.9988663        139.8331
0.308                  0.9977879        138.8997
0.312                  0.9970924        137.9941
0.316                  0.9968957        137.1054
0.32                   0.9972278        136.2207
0.324                  0.9980271        135.3279
0.328                  0.9991532         134.417
0.332                    1.00041        133.4826
0.336                   1.001581        132.5241
0.34                    1.002467        131.5461
0.344                   1.002919        130.5572
0.348                   1.002862        129.5686
0.352                   1.002309        128.5924
0.356                   1.001357        127.6391
0.36                     1.00017        126.7164
0.364                   0.998954        125.8272
0.368                  0.9979184        124.9698
0.372                  0.9972419        124.1374
0.376                  0.9970407        123.3196
0.38                   0.9973479        122.5045
0.384                  0.9981086        121.6799
0.388                  0.9991894        120.8364
0.392                   1.000402        119.9685
0.396                   1.001536        119.0757
0.4                     1.002396        118.1622
0.404                   1.002835        117.2364
0.408                   1.002778        116.3094
0.412                   1.002235        115.3929
0.416                   1.001303        114.4976
0.42                     1.00014        113.6309
0.424                  0.9989504        112.7958
0.428                  0.9979398        111.9907
0.432                  0.9972847         111.209
0.436                  0.9970996        110.4403
0.44                   0.9974166        109.6728
0.444                    0.99818        108.8947
0.448                  0.9992558        108.0966
0.452                   1.000456        107.2732
0.456                   1.001571         106.424
0.46                    1.002408        105.5535
0.464                   1.002819        104.6702
0.468                   1.002735        103.7853
0.472                   1.002168        102.9106
0.476                   1.001216        102.0565
0.48                    1.000045        101.2306
0.484                  0.9988564        100.4357
0.488                  0.9978594        99.66982
0.492                  0.9972288        98.92609
0.496                   0.997076        98.19412
0.5                    0.9974285        97.46173
0.504                   0.998225        96.71716
0.508                  0.9993253        95.95116
0.512                   1.000537        95.15864
0.516                   1.001647        94.33951
0.52                     1.00246        93.49865
0.524                   1.002834        92.64497
0.528                   1.002702        91.78997
0.532                   1.002085        90.94562
0.536                   1.001087        90.12254
0.54                   0.9998829        89.32793
0.544                  0.9986812        88.56441
0.548                  0.9976933        87.82945
0.552                  0.9970938        87.11571
0.556                  0.9969901        86.41227
0.56                   0.9974017        85.70659
0.564                  0.9982574         84.9868
0.568                  0.9994071         84.2437
0.572                   1.000648        83.47257
0.576                   1.001763        82.67385
0.58                    1.002554        81.85302
0.584                   1.002882         81.0197
0.588                   1.002685        80.18586
0.592                   1.001996        79.36383
0.596                   1.000933        78.56429
0.6                    0.9996791        77.79421
0.604                  0.9984542        77.05577
0.608                  0.9974745        76.34575
0.612                  0.9969148        75.65601
0.616                  0.9968763        74.97494
0.62                   0.9973682        74.28949
0.624                  0.9983059        73.58751
0.628                  0.9995247        72.85999
0.632                    1.00081         72.1026
0.636                   1.001935        71.31653
0.64                    1.002701        70.50808
0.644                    1.00297        69.68769
0.648                   1.002692        68.86803
0.652                   1.001911        68.06189
0.656                   1.000762        67.28001
0.66                   0.9994431        66.52912
0.664                  0.9981864        65.81075
0.668                  0.9972147        65.12081
0.672                  0.9967023        64.45019
0.676                  0.9967436        63.78638
0.68                   0.9973342        63.11563
0.684                  0.9983724        62.42553
0.688                  0.9996758        61.70724
0.692                   1.001015        60.95699
0.696                   1.002152        60.17683
0.7                     1.002884        59.37412
0.704                   1.003081         58.5603
0.708                   1.002701        57.74889
0.712                   1.001807        56.95323
0.716                   1.000552         56.1841
0.72                   0.9991534        55.44792
0.724                  0.9978572        54.74543
0.728                  0.9968941        54.07147
0.732                  0.9964379        53.41576
0.736                  0.9965738        52.76467
0.74                   0.9972812        52.10371
0.744                  0.9984378        51.42013
0.748                    0.99984        50.70528
0.752                    1.00124        49.95612
0.756                   1.002389        49.17573
0.76                     1.00308         48.3727
0.764                   1.003189        47.55969
0.768                   1.002688         46.7512
0.772                    1.00166        45.96114
0.776                    1.00028        45.20042
0.78                   0.9987884          44.475
0.784                  0.9974473        43.78468
0.788                  0.9964963        43.12304
0.792                   0.996108        42.47839
0.796                  0.9963564        41.83583
0.8                    0.9972016        41.17998
0.804                  0.9984968        40.49774
0.808                   1.000014        39.78074
0.812                   1.001484        39.02675
0.816                   1.002645        38.24012
0.82                    1.003288        37.43088
0.824                   1.003293        36.61308
0.828                   1.002652        35.80233
0.832                   1.001469        35.01323
0.836                  0.9999469        34.25675
0.84                     0.99835        33.53833
0.844                  0.9969605        32.85666
0.848                  0.9960276        32.20383
0.852                   0.995722        31.56651
0.856                  0.9961041        30.92834
0.86                   0.9971113        30.27291
0.864                  0.9985685        29.58678
0.868                   1.000219        28.86189
0.872                    1.00177        28.09704
0.876                   1.002944        27.29801
0.88                     1.00353        26.47649
0.884                   1.003415        25.64814
0.888                   1.002611        24.82987
0.892                    1.00125          24.037
0.896                  0.9995641        23.28063
0.9                    0.9978483        22.56549
0.904                  0.9964059        21.88905
0.908                  0.9954971        21.24159
0.912                  0.9952899        20.60792
0.916                   0.995829           19.97
0.92                   0.9970248        19.31025
0.924                  0.9986695        18.61483
0.928                   1.000473        17.87612
0.932                   1.002117        17.09407
0.936                   1.003304        16.27614
0.94                    1.003821        15.43596
0.944                   1.003565        14.59103
0.948                   1.002571        13.75974
0.952                   1.001002        12.95828
0.956                  0.9991271        12.19782
0.96                    0.997273        11.48238
0.964                  0.9957691        10.80787
0.968                  0.9948882        10.16258
0.972                  0.9947956        9.529106
0.976                  0.9955166        8.887434
0.98                   0.9969311         8.21866
0.984                  0.9987928         7.50848
0.988                   1.000774        6.749781
0.992                   1.002522        5.943864
0.996                   1.003724        5.100149
1                       1.004158        4.234507
1.004                   1.003736        3.366575
1.008                   1.002517        2.516484
1.012                   1.000702        1.701461
1.016                  0.9986021        0.932789
1.02                   0.9965828       0.2136325
1.024                  0.9950038      -0.4618427
1.028                   0.994153       -1.107737
1.032                  0.9941923       -1.744065
1.036                  0.9951256       -2.393155
1.04                   0.9967962       -3.075502
1.044                  0.9989131       -3.805968
1.048                   1.001103       -4.591095
1.052                   1.002976       -5.428007
1.056                   1.004195       -6.304999
1.06                    1.004532       -7.203573
1.064                   1.003913       -8.101542
1.068                   1.002426       -8.976692
1.072                   1.000318       -9.810519
1.076                  0.9979461       -10.59154
1.08                   0.9957252       -11.31753
1.084                  0.9940516       -11.99637
1.088                   0.993232       -12.64505
1.092                  0.9934257       -13.28667
1.096                  0.9946116       -13.94642
1.1                    0.9965899       -14.64673
1.104                  0.9990161       -15.40321
1.108                   1.001462       -16.22174
1.112                   1.003492        -17.0977
1.116                   1.004738       -18.01658
1.12                    1.004965       -18.95677
1.124                    1.00411         -19.893
1.128                   1.002301       -20.80045
1.132                  0.9998332       -21.65898
1.136                  0.9971257       -22.45668
1.14                   0.9946513       -23.19242
1.144                   0.992853        -23.8765
1.148                  0.9920633       -24.52933
1.152                  0.9924404       -25.17795
1.156                  0.9939342       -25.85106
1.16                   0.9962929       -26.57367
1.164                  0.9991065       -27.36241
1.168                   1.001879       -28.22253
1.172                   1.004115       -29.14717
1.176                   1.005407       -30.11864
1.18                    1.005507       -31.11143
1.184                   1.004367       -32.09633
1.188                   1.002156       -33.04519
1.192                   0.999233       -33.93559
1.196                  0.9960924       -34.75494
1.2                    0.9932823       -35.50321
1.204                  0.9913081       -36.19361
1.208                  0.9905387        -36.8509
1.212                  0.9911343       -37.50713
1.216                  0.9930118       -38.19571
1.22                   0.9958555       -38.94506
1.224                  0.9991713       -39.77337
1.228                   1.002375       -40.68529
1.232                   1.004892       -41.67137
1.236                   1.006262       -42.70984
1.24                    1.006212       -43.77021
1.244                   1.004709       -44.81816
1.248                   1.001972         -45.821
1.252                  0.9984407       -46.75302
1.256                  0.9947076       -47.60032
1.26                   0.9914233       -48.36393
1.264                  0.9891802       -49.06072
1.268                  0.9884024       -49.72111
1.272                  0.9892602       -50.38392
1.276                  0.9916317       -51.08915
1.28                    0.995119       -51.87021
1.284                  0.9991161       -52.74775
1.288                   1.002917       -53.72597
1.292                   1.005839       -54.79228
1.296                   1.007337       -55.91954
1.3                     1.007101       -57.07069
1.304                   1.005108       -58.20426
1.308                   1.001638       -59.28098
1.312                  0.9972362        -60.2701
1.316                  0.9926331        -61.1552
1.32                   0.9886262       -61.93817
1.324                  0.9859394        -62.6405
1.328                  0.9850861       -63.30051
1.332                  0.9862638       -63.96694
1.336                  0.9893053       -64.68966
1.34                   0.9937008       -65.50992
1.344                  0.9986857       -66.45265
1.348                   1.003376       -67.52211
1.352                   1.006919       -68.70166
1.356                    1.00864       -69.95696
1.36                    1.008155       -71.24139
1.364                   1.005442       -72.50299
1.368                   1.000855       -73.69215
1.372                  0.9950892       -74.76963
1.376                  0.9890784       -75.71387
1.38                   0.9838518       -76.52683
1.384                  0.9803519       -77.23606
1.388                   0.979254       -77.89187
1.392                  0.9808215       -78.55899
1.396                  0.9848374       -79.30392
1.4                    0.9906286       -80.18189
1.404                  0.9971822       -81.22615
1.408                   1.003323       -82.44248
1.412                   1.007911       -83.80922
1.416                   1.010035       -85.28141
1.42                     1.00916       -86.79781
1.424                   1.005223       -88.28925
1.428                  0.9986678       -89.68828
1.432                  0.9904089       -90.93921
1.436                  0.9817168       -92.00886
1.44                   0.9740321       -92.89575
1.444                  0.9687183       -93.63554
1.448                  0.9667955       -94.29905
1.452                  0.9687109       -94.98139
1.456                  0.9742124       -95.78335
1.46                   0.9823649       -96.79052
1.464                  0.9917062       -98.05683
1.468                   1.000499       -99.59602
1.472                   1.007018        -101.382
1.476                   1.009819       -103.3547
1.48                    1.007964       -105.4293
1.484                    1.00117       -107.5064
1.488                  0.9899036       -109.4829
1.492                  0.9753783       -111.2653
1.496                  0.9594619       -112.7863
1.5                    0.9444578       -114.0237
1.504                   0.932751       -115.0187
1.508                  0.9263425       -115.8855
1.512                   0.926362       -116.8008
1.516                  0.9327049       -117.9733
1.52                   0.9439293       -119.6004
1.524                   0.957443        -121.831
1.528                  0.9698971       -124.7491
1.532                  0.9776444       -128.3767
1.536                  0.9771471       -132.6902
1.54                   0.9652805       -137.6385
1.544                  0.9395358       -143.1597
1.548                  0.8981368        -149.192
1.552                  0.8400956       -155.6825
1.556                  0.7652262       -162.5954
1.56                   0.6741236        -169.923
1.564                  0.5681232       -177.7123
1.568                  0.4492528        173.8633
1.572                  0.3202376         164.241
1.576                  0.1849432        151.0251
1.58                  0.05745458         108.404
1.584                  0.1132618       -8.212257
1.588                  0.2487537        -28.1017
1.592                  0.3817891       -39.04123
1.596                  0.5065348       -47.98641
1.6                    0.6197967       -56.08321
1.604                  0.7191867       -63.65233
1.608                  0.8029955       -70.79337
1.612                  0.8702258       -77.52323
1.616                  0.9206383       -83.81956
1.62                   0.9547842       -89.63799
1.624                    0.97401       -94.92132
1.628                  0.9804263       -99.60709
1.632                  0.9768257       -103.6372
1.636                  0.9665313       -106.9713
1.64                   0.9531516        -109.604
1.644                  0.9402322        -111.583
1.648                  0.9308206       -113.0203
1.652                  0.9270273       -114.0878
1.656                  0.9297113       -114.9908
1.66                   0.9384186       -115.9268
1.664                  0.9516068       -117.0465
1.668                  0.9670761       -118.4319
1.672                  0.9824545       -120.0954
1.676                  0.9956161       -121.9941
1.68                    1.004973       -124.0485
1.684                   1.009636       -126.1609
1.688                   1.009462       -128.2298
1.692                   1.005012       -130.1622
1.696                  0.9974406       -131.8837
1.7                    0.9883109       -133.3484
1.704                  0.9793531       -134.5465
1.708                  0.9721925       -135.5081
1.712                  0.9680743          -136.3
1.716                   0.967653       -137.0143
1.72                   0.9708931       -137.7495
1.724                  0.9771134       -138.5908
1.728                  0.9851564       -139.5945
1.732                  0.9936333       -140.7807
1.736                   1.001181       -142.1354
1.74                     1.00668       -143.6164
1.744                   1.009411       -145.1642
1.748                    1.00913       -146.7113
1.752                    1.00608       -148.1925
1.756                   1.000932       -149.5537
1.76                   0.9946703       -150.7592
1.764                  0.9884284       -151.7977
1.768                  0.9833038        -152.685
1.772                  0.9801679       -153.4615
1.776                  0.9795175       -154.1856
1.78                   0.9813936       -154.9219
1.784                   0.985393       -155.7287
1.788                  0.9907619       -156.6473
1.792                  0.9965518       -157.6954
1.796                   1.001793       -158.8671
1.8                      1.00566       -160.1354
1.804                   1.007592       -161.4586
1.808                    1.00737       -162.7882
1.812                   1.005132       -164.0755
1.816                    1.00134       -165.2797
1.82                   0.9966984        -166.373
1.824                  0.9920359       -167.3461
1.828                  0.9881625       -168.2092
1.832                   0.985733        -168.991
1.836                  0.9851328       -169.7334
1.84                   0.9864156       -170.4835
1.844                  0.9893043       -171.2846
1.848                  0.9932539       -172.1684
1.852                  0.9975605       -173.1498
1.856                   1.001491       -174.2256
1.86                    1.004408       -175.3767
1.864                   1.005869       -176.5719
1.868                   1.005689        -177.774
1.872                   1.003962       -178.9454
1.876                   1.001031         179.946
1.88                   0.9974351        178.9218
1.884                  0.9938084        177.9898
1.888                  0.9907775        177.1423
1.892                  0.9888509        176.3576
1.896                  0.9883328        175.6038
1.9                    0.9892729        174.8448
1.904                  0.9914657        174.0472
1.908                  0.9944958        173.1861
1.912                  0.9978202        172.2494
1.916                   1.000867        171.2388
1.92                    1.003133        170.1687
1.924                   1.004268        169.0634
1.928                   1.004119         167.952
1.932                   1.002755        166.8642
1.936                   1.000443        165.8255
1.94                   0.9976023        164.8528
1.944                  0.9947321        163.9525
1.948                  0.9923231        163.1185
1.952                  0.9907754        162.3338
1.956                  0.9903289        161.5738
1.96                   0.9910256        160.8103
1.964                  0.9927083        160.0171
1.968                  0.9950549        159.1747
1.972                  0.9976411        158.2731
1.976                   1.000019        157.3135
1.98                    1.001792        156.3071
1.984                   1.002682        155.2724
1.988                   1.002566        154.2326
1.992                   1.001496        153.2109
1.996                  0.9996802        152.2274
2                      0.9974447        151.2955
2.004                  0.9951787          150.42
2.008                  0.9932644        149.5963
2.012                  0.9920127        148.8112
2.016                  0.9916114        148.0457
2.02                    0.992095        147.2782
2.024                  0.9933452        146.4883
2.028                  0.9951164        145.6609
2.032                  0.9970844        144.7882
2.036                  0.9989044        143.8707
2.04                    1.000272        142.9167
2.044                    1.00097        141.9403
2.048                   1.000903        140.9591
2.052                   1.000105        139.9909
2.056                  0.9987304        139.0508
2.06                   0.9970246        138.1493
2.064                  0.9952779        137.2899
2.068                  0.9937762        136.4696
2.072                   0.992753        135.6787
2.076                  0.9923513        134.9032
2.08                   0.9926021        134.1273
2.084                   0.993425        133.3361
2.088                  0.9946468        132.5184
2.092                  0.9960361        131.6678
2.096                  0.9973452        130.7844
2.1                    0.9983527        129.8735
2.104                  0.9988988        128.9449
2.108                  0.9989069        128.0106
2.112                  0.9983919        127.0832
2.116                  0.9974522        126.1736
2.12                   0.9962491        125.2891
2.124                  0.9949762        124.4327
2.128                  0.9938269         123.603
2.132                  0.9929624        122.7943
2.136                  0.9924864        121.9976
2.14                   0.9924337         121.203
2.144                  0.9927677        120.4008
2.148                  0.9933931        119.5832
2.152                  0.9941759        118.7454
2.156                  0.9949677        117.8863
2.16                   0.9956306         117.008
2.164                  0.9960576         116.115
2.168                  0.9961855        115.2138
2.172                  0.9959995        114.3113
2.176                  0.9955304        113.4137
2.18                   0.9948441        112.5258
2.184                   0.994029        111.6507
2.188                  0.9931792        110.7889
2.192                  0.9923829        109.9394
2.196                   0.991711        109.0994
2.2                     0.991211        108.2652
2.204                  0.9909055        107.4326
2.208                  0.9907938        106.5974
2.212                  0.9908559        105.7559
2.216                  0.9910565         104.905
2.22                   0.9913493        104.0423
2.224                  0.9916804        103.1661
2.228                  0.9919903        102.2757
2.232                   0.992217        101.3712
2.236                  0.9922993        100.4538
2.24                   0.9921818        99.52567
2.244                  0.9918212        98.59027
2.248                  0.9911954        97.65185
2.252                  0.9903105        96.71538
2.256                  0.9892067        95.78576
2.26                   0.9879605        94.86709
2.264                  0.9866796        93.96177
2.268                  0.9854922        93.06972
2.272                  0.9845291         92.1877
2.276                  0.9839015        91.30926
2.28                   0.9836777        90.42521
2.284                  0.9838632        89.52464
2.288                  0.9843902         88.5965
2.292                  0.9851168        87.63154
2.296                  0.9858418        86.62394
2.3                    0.9863316        85.57274
2.304                  0.9863559        84.48246
2.308                   0.985728        83.36277
2.312                  0.9843417        82.22748
2.316                  0.9821997        81.09239
2.32                   0.9794264        79.97269
2.324                  0.9762595        78.88012
2.328                   0.973023           77.82
2.332                  0.9700776        76.78918
2.336                  0.9677585        75.77497
2.34                   0.9663086        74.75594
2.344                  0.9658202        73.70438
2.348                  0.9661974        72.59052
2.352                  0.9671518        71.38732