! TOUCHSTONE file generated by CST MICROWAVE STUDIO
! Date and time: Tue Jun 14 12:12:43 2022
! Project name: AppElm_antenne_patch_FR4.cst
! Parameters = {L=45; W=58.5; e=0.035; h=1.6; lambda=0.190476; ls=120; w0=2.032; w1=0.847; ws=120; y0=18; y1=23.8}
! Header version: 2018
! Port assignment regex: !\s*Touchstone port\s*([0-9]+)\s*=\s*(CST MWS port|CST DS port)\s*([0-9]+|Zmin|Zmax)\s*\(\"(.*)\"\)(\s*mode\s*([0-9]+))?.*
! Touchstone port assignment:
! Touchstone port 1 = CST MWS port 1 ("")
# GHz S MA R 50
0                      0.9889598              -0
0.004                  0.9896299       -9.964453
0.008                  0.9915462       -19.83835
0.012                  0.9944416        -29.5357
0.016                  0.9979173       -38.97881
0.02                    1.001503        -48.1009
0.024                   1.004727       -56.84722
0.028                   1.007178       -65.17517
0.032                   1.008563       -73.05375
0.036                   1.008742       -80.46274
0.04                     1.00774       -87.39222
0.044                   1.005745       -93.84227
0.048                   1.003074       -99.82292
0.052                   1.000128       -105.3542
0.056                  0.9973345       -110.4659
0.06                   0.9950853       -115.1963
0.064                  0.9936778         -119.59
0.068                  0.9932744       -123.6952
0.072                  0.9938806       -127.5595
0.076                  0.9953503       -131.2265
0.08                   0.9974147       -134.7323
0.084                  0.9997291       -138.1034
0.088                   1.001929       -141.3563
0.092                   1.003688       -144.4981
0.096                   1.004761       -147.5282
0.1                     1.005022       -150.4408
0.104                   1.004471       -153.2284
0.108                   1.003237       -155.8837
0.112                   1.001546        -158.403
0.116                   0.999688       -160.7879
0.12                   0.9979674       -163.0458
0.124                  0.9966561       -165.1904
0.128                  0.9959494       -167.2402
0.132                  0.9959385       -169.2164
0.136                  0.9965967       -171.1401
0.14                   0.9977899       -173.0298
0.144                  0.9993015        -174.899
0.148                   1.000872       -176.7549
0.152                   1.002243       -178.5984
0.156                   1.003196        179.5756
0.16                    1.003592        177.7762
0.164                   1.003384         176.015
0.168                   1.002627        174.3031
0.172                   1.001463        172.6494
0.176                   1.000097         171.059
0.18                   0.9987631        169.5317
0.184                  0.9976824         168.062
0.188                  0.9970295        166.6399
0.192                  0.9969025        165.2522
0.196                  0.9973084        163.8847
0.2                     0.998164        162.5243
0.204                  0.9993129        161.1613
0.208                   1.000553        159.7903
0.212                   1.001673        158.4112
0.216                   1.002486        157.0287
0.22                    1.002862        155.6509
0.224                   1.002747        154.2885
0.228                   1.002171         152.952
0.232                   1.001239        151.6505
0.236                   1.000116        150.3897
0.24                    0.998996        149.1712
0.244                  0.9980692        147.9918
0.248                  0.9974903        146.8442
0.252                  0.9973524        145.7182
0.256                  0.9976713        144.6023
0.26                   0.9983843        143.4858
0.264                  0.9993622        142.3603
0.268                   1.000433        141.2215
0.272                   1.001411         140.069
0.276                    1.00213        138.9071
0.28                    1.002471        137.7434
0.284                   1.002381        136.5872
0.288                    1.00188        135.4486
0.292                   1.001058        134.3359
0.296                    1.00006        133.2549
0.3                    0.9990595        132.2074
0.304                  0.9982282        131.1911
0.308                  0.9977083        130.1998
0.312                  0.9975866        129.2245
0.316                    0.99788        128.2551
0.32                   0.9985333        127.2818
0.324                  0.9994299        126.2973
0.328                   1.000412        125.2973
0.332                   1.001309         124.282
0.336                   1.001966        123.2551
0.34                    1.002272         122.224
0.344                   1.002177        121.1974
0.348                   1.001699        120.1849
0.352                   1.000923        119.1944
0.356                  0.9999859        118.2315
0.36                   0.9990499        117.2979
0.364                  0.9982779        116.3915
0.368                  0.9978039        115.5065
0.372                  0.9977091        114.6345
0.376                  0.9980084        113.7657
0.38                    0.998648        112.8912
0.384                  0.9995148        112.0039
0.388                   1.000457        111.1001
0.392                    1.00131        110.1799
0.396                   1.001926        109.2473
0.4                     1.002199        108.3093
0.404                   1.002084        107.3748
0.408                     1.0016        106.4528
0.412                   1.000833        105.5511
0.416                  0.9999181        104.6751
0.42                   0.9990137        103.8263
0.424                  0.9982789        103.0026
0.428                  0.9978427        102.1979
0.432                  0.9977816        101.4042
0.436                  0.9981061        100.6118
0.44                   0.9987593        99.81183
0.444                  0.9996265         98.9977
0.448                   1.000555        98.16592
0.452                   1.001383        97.31698
0.456                   1.001966        96.45507
0.46                    1.002201        95.58737
0.464                   1.002048        94.72279
0.468                   1.001532        93.87043
0.472                   1.000742        93.03798
0.476                  0.9998172        92.23046
0.48                   0.9989179        91.44922
0.484                  0.9982022         90.6917
0.488                  0.9977963        89.95184
0.492                  0.9977723        89.22105
0.496                  0.9981348         88.4898
0.5                    0.9988203        87.74925
0.504                  0.9997083         86.9929
0.508                   1.000642        86.21768
0.512                   1.001458        85.42439
0.516                   1.002011        84.61773
0.52                    1.002204         83.8052
0.524                      1.002          82.996
0.528                   1.001434        82.19937
0.532                   1.000603        81.42294
0.536                  0.9996512        80.67152
0.54                   0.9987454        79.94609
0.544                  0.9980454        79.24359
0.548                  0.9976757        78.55744
0.552                   0.997703        77.87867
0.556                   0.998124        77.19743
0.56                   0.9988659        76.50482
0.564                  0.9997982        75.79454
0.568                   1.000757         75.0638
0.572                   1.001573        74.31404
0.576                   1.002102        73.55046
0.58                    1.002249        72.78117
0.584                   1.001985        72.01584
0.588                   1.001355        71.26391
0.592                   1.000466         70.5331
0.596                  0.9994739        69.82789
0.6                    0.9985528        69.14879
0.604                   0.997866        68.49215
0.608                  0.9975369        67.85069
0.612                   0.997626        67.21478
0.616                  0.9981202        66.57419
0.62                   0.9989336         65.9199
0.624                  0.9999236        65.24572
0.628                   1.000916        64.54937
0.632                   1.001734        63.83293
0.636                   1.002232        63.10236
0.64                     1.00232        62.36656
0.644                   1.001978        61.63574
0.648                   1.001263        60.91972
0.652                   1.000297        60.22621
0.656                  0.9992494        59.55942
0.66                   0.9983045        58.91923
0.664                  0.9976303        58.30115
0.668                  0.9973491        57.69704
0.672                  0.9975138        57.09651
0.676                  0.9980982        56.48877
0.68                   0.9990015        55.86459
0.684                   1.000065        55.21798
0.688                   1.001101        54.54724
0.692                   1.001924        53.85526
0.696                   1.002388        53.14896
0.7                     1.002408        52.43812
0.704                   1.001974        51.73369
0.708                   1.001159        51.04589
0.712                   1.000105        50.38245
0.716                  0.9989936        49.74717
0.72                   0.9980233         49.1392
0.724                  0.9973678        48.55307
0.728                   0.997147        47.97953
0.732                  0.9974047        47.40724
0.736                  0.9980986        46.82481
0.74                   0.9991089        46.22279
0.744                   1.000258        45.59548
0.748                   1.001342        44.94186
0.752                   1.002168        44.26584
0.756                   1.002586        43.57546
0.76                    1.002517        42.88161
0.764                   1.001968        42.19607
0.768                   1.001031        41.52954
0.772                  0.9998646        40.88974
0.776                  0.9986746        40.27998
0.78                   0.9976711        39.69849
0.784                  0.9970349        39.13855
0.788                  0.9968833        38.58968
0.792                  0.9972473        38.03943
0.796                  0.9980667        37.47568
0.8                    0.9991984        36.88878
0.804                   1.000443        36.27338
0.808                   1.001578        35.62933
0.812                   1.002401        34.96171
0.816                    1.00276        34.27994
0.82                    1.002586        33.59614
0.824                   1.001901        32.92306
0.828                   1.000821         32.2719
0.832                  0.9995305        31.65033
0.836                  0.9982558        31.06099
0.84                    0.997224        30.50099
0.844                   0.996622        29.96217
0.848                  0.9965626        29.43255
0.852                  0.9970622         28.8984
0.856                  0.9980376        28.34675
0.86                   0.9993186         27.7678
0.864                   1.000679        27.15667
0.868                   1.001878        26.51425
0.872                   1.002699        25.84707
0.876                    1.00299         25.1661
0.88                    1.002694        24.48494
0.884                   1.001854        23.81744
0.888                    1.00061        23.17534
0.892                  0.9991782        22.56618
0.896                  0.9978097        21.99185
0.9                    0.9967496        21.44807
0.904                  0.9961919        20.92499
0.908                   0.996243        20.40886
0.912                  0.9969007         19.8845
0.916                  0.9980546        19.33806
0.92                   0.9995032        18.75959
0.924                    1.00099        18.14481
0.928                    1.00225        17.49592
0.932                   1.003055        16.82113
0.936                   1.003255        16.13328
0.94                    1.002803        15.44763
0.944                    1.00177        14.77929
0.948                   1.000328        14.14061
0.952                  0.9987264        13.53894
0.956                  0.9972467        12.97517
0.96                   0.9961548        12.44339
0.964                  0.9956517         11.9317
0.968                  0.9958355         11.4243
0.972                  0.9966823        10.90429
0.976                  0.9980482        10.35681
0.98                   0.9996948        9.771767
0.984                    1.00133        9.145685
0.988                   1.002663        8.482264
0.992                   1.003449        7.791739
0.996                   1.003541         7.08911
1                       1.002911          6.3916
1.004                   1.001655         5.71576
1.008                  0.9999869        5.074597
1.012                  0.9981941          4.4752
1.016                   0.996594        3.917273
1.02                   0.9954762        3.392915
1.024                  0.9950488        2.887808
1.028                  0.9953996        2.383688
1.032                  0.9964772        1.861667
1.036                  0.9980984        1.305737
1.04                     0.99998         0.70572
1.044                   1.001789      0.05910219
1.048                     1.0032      -0.6285506
1.052                   1.003956       -1.344587
1.056                   1.003909       -2.071428
1.06                    1.003052       -2.789502
1.064                   1.001519       -3.480536
1.068                  0.9995669       -4.130718
1.072                   0.997533       -4.733263
1.076                  0.9957769       -5.289901
1.08                   0.9946163       -5.810915
1.084                  0.9942693       -6.313564
1.088                  0.9948111       -6.819059
1.092                   0.996157       -7.348726
1.096                  0.9980767       -7.919949
1.1                     1.000233       -8.543026
1.104                   1.002243       -9.219325
1.108                   1.003744       -9.940976
1.112                   1.004457       -10.69251
1.116                   1.004238       -11.45318
1.12                    1.003104       -12.20062
1.124                   1.001234       -12.91443
1.128                  0.9989386       -13.57979
1.132                  0.9966154       -14.19026
1.136                  0.9946761       -14.74933
1.14                   0.9934747       -15.27022
1.144                  0.9932408       -15.77386
1.148                  0.9940346       -16.28518
1.152                   0.995731       -16.82852
1.156                  0.9980408       -17.42307
1.16                     1.00056       -18.07929
1.164                   1.002842       -18.79713
1.168                   1.004474       -19.56606
1.172                   1.005153       -20.36694
1.176                   1.004735       -21.17521
1.18                    1.003266       -21.96485
1.184                   1.000977       -22.71273
1.188                  0.9982487       -23.40264
1.192                  0.9955536       -24.02838
1.196                  0.9933707       -24.59551
1.2                    0.9921018        -25.1209
1.204                  0.9919943       -25.63011
1.208                  0.9930915       -26.15285
1.212                  0.9952191       -26.71742
1.216                  0.9980133       -27.34539
1.22                    1.000985        -28.0476
1.224                   1.003604       -28.82231
1.228                   1.005395       -29.65561
1.232                   1.006017       -30.52381
1.236                   1.005323        -31.3973
1.24                    1.003395       -32.24532
1.244                   1.000529       -33.04093
1.248                  0.9971981       -33.76575
1.252                  0.9939728       -34.41367
1.256                  0.9914259        -34.9927
1.26                   0.9900281       -35.52443
1.264                  0.9900568       -36.04065
1.268                  0.9915388       -36.57766
1.272                  0.9942377       -37.16943
1.276                  0.9976924       -37.84111
1.28                    1.001298        -38.6044
1.284                   1.004411       -39.45568
1.288                   1.006461       -40.37672
1.292                    1.00705       -41.33785
1.296                   1.006022       -42.30268
1.3                     1.003494       -43.23374
1.304                  0.9998506       -44.09849
1.308                  0.9956837       -44.87502
1.312                  0.9917052       -45.55666
1.316                  0.9886233       -46.15436
1.32                   0.9870146       -46.69604
1.324                  0.9872103       -47.22236
1.328                  0.9892233       -47.77933
1.332                  0.9927361        -48.4095
1.336                  0.9971516       -49.14382
1.34                    1.001697       -49.99588
1.344                   1.005558       -50.95989
1.348                   1.008018       -52.01191
1.352                   1.008581       -53.11388
1.356                   1.007058       -54.21948
1.36                    1.003606       -55.28097
1.364                  0.9987217       -56.25662
1.368                  0.9931743       -57.11797
1.372                  0.9878901       -57.85597
1.376                  0.9837989       -58.48472
1.38                   0.9816632       -59.04113
1.384                  0.9819239       -59.57958
1.388                  0.9846005       -60.16209
1.392                  0.9892691       -60.84617
1.396                  0.9951293       -61.67357
1.4                     1.001142       -62.66265
1.404                   1.006211       -63.80578
1.408                   1.009361       -65.07122
1.412                   1.009908       -66.40848
1.416                   1.007568       -67.75548
1.42                    1.002528       -69.04721
1.424                  0.9954377       -70.22511
1.428                  0.9873426       -71.24689
1.432                  0.9795399       -72.09615
1.436                  0.9733717       -72.78939
1.44                   0.9699803       -73.37761
1.444                  0.9700701       -73.94036
1.448                  0.9737362       -74.57162
1.452                  0.9804101       -75.36087
1.456                  0.9889413       -76.37517
1.46                   0.9977925        -77.6471
1.464                   1.005297       -79.17092
1.468                   1.009927       -80.90536
1.472                   1.010529       -82.78097
1.476                   1.006508       -84.70923
1.48                   0.9979442       -86.59271
1.484                  0.9856373       -88.33673
1.488                  0.9710675       -89.86341
1.492                  0.9562467       -91.12879
1.496                  0.9434468       -92.14083
1.5                    0.9348064       -92.97309
1.504                   0.931869       -93.76504
1.508                  0.9351641       -94.70275
1.512                  0.9439714       -95.98313
1.516                  0.9563522       -97.77452
1.52                   0.9694261       -100.1902
1.524                  0.9797829       -103.2813
1.528                  0.9839007       -107.0459
1.532                  0.9784947       -111.4455
1.536                  0.9607639       -116.4208
1.54                   0.9285505       -121.9046
1.544                  0.8804283       -127.8295
1.548                  0.8157383       -134.1333
1.552                   0.734587       -140.7617
1.556                  0.6378142       -147.6716
1.56                   0.5269362        -154.838
1.564                   0.404067        -162.274
1.568                  0.2718282       -170.1161
1.572                  0.1332805       -179.2617
1.576                 0.01200462        39.80228
1.58                   0.1505898       -7.411121
1.584                  0.2884504       -16.25563
1.588                  0.4195422        -24.0483
1.592                  0.5408641       -31.47382
1.596                  0.6498565       -38.64238
1.6                    0.7444788       -45.55999
1.604                  0.8232986       -52.19848
1.608                   0.885568       -58.51298
1.612                  0.9312773        -64.4476
1.616                  0.9611842       -69.93855
1.62                    0.976814       -74.91717
1.624                  0.9804188       -79.31525
1.628                  0.9748851        -83.0737
1.632                  0.9635677       -86.15574
1.636                  0.9500311       -88.56382
1.64                   0.9376886       -90.35632
1.644                  0.9293715       -91.65585
1.648                  0.9269157       -92.64002
1.652                  0.9308987       -93.51205
1.656                  0.9406354       -94.45948
1.66                   0.9544445       -95.61834
1.664                  0.9700879       -97.05593
1.668                  0.9852373       -98.77318
1.672                  0.9978621       -100.7198
1.676                    1.00649       -102.8132
1.68                    1.010346       -104.9547
1.684                   1.009385       -107.0442
1.688                   1.004248       -108.9905
1.692                  0.9961377       -110.7222
1.696                  0.9866444       -112.1961
1.7                    0.9775023       -113.4057
1.704                   0.970321       -114.3838
1.708                  0.9663183       -115.2001
1.712                  0.9661135       -115.9481
1.716                  0.9696363       -116.7273
1.72                   0.9761748       -117.6231
1.724                  0.9845465       -118.6913
1.728                  0.9933414       -119.9517
1.732                   1.001177       -121.3892
1.736                   1.006914       -122.9615
1.74                    1.009807       -124.6079
1.744                   1.009591       -126.2601
1.748                   1.006486       -127.8512
1.752                   1.001151       -129.3245
1.756                  0.9945724       -130.6417
1.76                   0.9879083        -131.788
1.764                  0.9823049       -132.7764
1.768                  0.9787025       -133.6458
1.772                  0.9776771       -134.4547
1.776                  0.9793454       -135.2704
1.78                   0.9833573       -136.1557
1.784                  0.9889801       -137.1573
1.788                  0.9952455       -138.2986
1.792                   1.001127       -139.5782
1.796                   1.005712       -140.9718
1.8                     1.008333       -142.4387
1.804                    1.00866       -143.9288
1.808                   1.006737         -145.39
1.812                   1.002956       -146.7757
1.816                  0.9979982       -148.0514
1.82                   0.9927181       -149.1996
1.824                  0.9880099       -150.2237
1.828                  0.9846576       -151.1475
1.832                  0.9832022       -152.0117
1.836                  0.9838517       -152.8663
1.84                   0.9864499       -153.7615
1.844                   0.990516       -154.7384
1.848                   0.995341       -155.8216
1.852                   1.000117       -157.0169
1.856                   1.004076       -158.3109
1.86                    1.006608       -159.6753
1.864                   1.007353       -161.0716
1.868                   1.006243       -162.4575
1.872                   1.003507       -163.7929
1.876                  0.9996301        -165.046
1.88                   0.9952722       -166.1977
1.884                  0.9911652       -167.2453
1.888                  0.9879905        -168.203
1.892                  0.9862654       -169.1001
1.896                  0.9862556       -169.9757
1.9                    0.9879318       -170.8718
1.904                  0.9909817       -171.8252
1.908                  0.9948722       -172.8615
1.912                  0.9989465       -173.9911
1.916                   1.002539       -175.2084
1.92                    1.005081       -176.4936
1.924                   1.006189       -177.8167
1.928                   1.005717       -179.1424
1.932                   1.003773        179.5647
1.936                     1.0007        178.3346
1.94                    0.997015        177.1877
1.944                  0.9933339        176.1314
1.948                  0.9902645        175.1584
1.952                  0.9883089        174.2477
1.956                  0.9877771        173.3684
1.96                   0.9887367        172.4847
1.964                  0.9910035        171.5626
1.968                  0.9941792        170.5761
1.972                   0.997724        169.5109
1.976                   1.001052        168.3667
1.98                    1.003624        167.1565
1.984                   1.005038        165.9034
1.988                   1.005084        164.6371
1.992                    1.00377        163.3895
1.996                   1.001325        162.1893
2                      0.9981558        161.0582
2.004                  0.9947826        160.0074
2.008                  0.9917581        159.0354
2.012                  0.9895747         158.128
2.016                  0.9885826        157.2605
2.02                   0.9889304        156.4023
2.024                  0.9905422        155.5216
2.028                  0.9931328        154.5916
2.032                  0.9962598        153.5949
2.036                   0.999402        152.5259
2.04                    1.002045        151.3915
2.044                   1.003763        150.2089
2.048                   1.004288        149.0033
2.052                    1.00354        147.8033
2.056                   1.001645        146.6369
2.06                   0.9989118        145.5273
2.064                  0.9957816        144.4892
2.068                  0.9927598        143.5263
2.072                  0.9903352        142.6305
2.076                   0.988898        141.7829
2.08                   0.9886746        140.9569
2.084                  0.9896885        140.1227
2.088                  0.9917589        139.2528
2.092                  0.9945319        138.3261
2.096                  0.9975428        137.3323
2.1                     1.000294         136.272
2.104                   1.002335        135.1574
2.108                   1.003332         134.009
2.112                    1.00312        132.8531
2.116                   1.001725         131.717
2.12                   0.9993603        130.6259
2.124                  0.9963936        129.5982
2.128                  0.9932919        128.6431
2.132                  0.9905474        127.7584
2.136                  0.9885974        126.9309
2.14                   0.9877521        126.1378
2.144                  0.9881409         125.351
2.148                  0.9896889        124.5413
2.152                  0.9921312         123.684
2.156                   0.995056        122.7629
2.16                   0.9979748        121.7725
2.164                   1.000401        120.7188
2.168                   1.001925        119.6182
2.172                   1.002283        118.4945
2.176                   1.001388        117.3752
2.18                   0.9993537        116.2879
2.184                  0.9964722        115.2559
2.188                  0.9931756        114.2945
2.192                  0.9899702        113.4083
2.196                  0.9873568        112.5901
2.2                    0.9857488        111.8214
2.204                   0.985401        111.0751
2.208                   0.986364        110.3197
2.212                   0.988471        109.5254
2.216                  0.9913654        108.6685
2.22                   0.9945573        107.7356
2.224                   0.997503        106.7257
2.228                  0.9996913          105.65
2.232                   1.000723          104.53
2.236                   1.000374        103.3942
2.24                     0.99863        102.2739
2.244                  0.9956949         101.199
2.248                  0.9919663        100.1932
2.252                  0.9879805        99.27009
2.256                   0.984333        98.43017
2.26                   0.9815845        97.65998
2.264                  0.9801651        96.93329
2.268                  0.9802969        96.21494
2.272                  0.9819469         95.4666
2.276                  0.9848258        94.65358
2.28                   0.9884301        93.75064
2.284                  0.9921209        92.74631
2.288                  0.9952251         91.6445
2.292                  0.9971406        90.46362
2.296                  0.9974295        89.23386
2.3                    0.9958894        87.99284
2.304                   0.992592        86.78054
2.308                  0.9878852        85.63344
2.312                  0.9823548        84.57894
2.316                  0.9767488        83.62991
2.32                   0.9718662        82.78096
2.324                  0.9684266        82.00706
2.328                  0.9669392        81.26589
2.332                  0.9675986        80.50398
2.336                  0.9702296         79.6657
2.34                   0.9742987        78.70302
2.344                  0.9789886        77.58386
2.348                  0.9833218        76.29705
2.352                  0.9863094        74.85357