! TOUCHSTONE file generated by CST MICROWAVE STUDIO
! Date and time: Tue Jun 14 12:12:42 2022
! Project name: AppElm_antenne_patch_FR4.cst
! Parameters = {L=45; W=58.5; e=0.035; h=1.6; lambda=0.190476; ls=120; w0=1.905; w1=0.847; ws=120; y0=18; y1=23.8}
! Header version: 2018
! Port assignment regex: !\s*Touchstone port\s*([0-9]+)\s*=\s*(CST MWS port|CST DS port)\s*([0-9]+|Zmin|Zmax)\s*\(\"(.*)\"\)(\s*mode\s*([0-9]+))?.*
! Touchstone port assignment:
! Touchstone port 1 = CST MWS port 1 ("")
# GHz S MA R 50
0                      0.9892637              -0
0.004                  0.9899184       -9.960032
0.008                   0.991791       -19.83032
0.012                  0.9946196       -29.52557
0.016                  0.9980137       -38.96869
0.02                    1.001514       -48.09331
0.024                   1.004656       -56.84494
0.028                    1.00704       -65.18113
0.032                    1.00838       -73.07092
0.036                   1.008538       -80.49414
0.04                    1.007543       -87.44086
0.044                    1.00558       -93.91109
0.048                   1.002959        -99.9149
0.052                   1.000077       -105.4722
0.056                  0.9973507       -110.6125
0.06                   0.9951634       -115.3737
0.064                  0.9938047       -119.8001
0.068                  0.9934306       -123.9392
0.072                  0.9940436        -127.838
0.076                  0.9954974       -131.5393
0.08                   0.9975267       -135.0788
0.084                  0.9997922       -138.4826
0.088                   1.001937       -141.7669
0.092                   1.003642       -144.9386
0.096                    1.00467       -147.9974
0.1                     1.004899       -150.9376
0.104                   1.004335        -153.752
0.108                   1.003106       -156.4339
0.112                   1.001438       -158.9797
0.116                  0.9996155       -161.3914
0.12                   0.9979387       -163.6767
0.124                  0.9966722       -165.8493
0.128                  0.9960053       -167.9277
0.132                  0.9960228       -169.9328
0.136                   0.996695       -171.8855
0.14                    0.997886       -173.8037
0.144                  0.9993807       -175.7008
0.148                   1.000923       -177.5837
0.152                   1.002258       -179.4529
0.156                   1.003175        178.6966
0.16                    1.003539        176.8739
0.164                   1.003309        175.0904
0.168                   1.002542        173.3569
0.172                   1.001383        171.6822
0.176                   1.000034        170.0708
0.18                   0.9987275        168.5224
0.184                  0.9976801        167.0314
0.188                  0.9970611        165.5876
0.192                  0.9969629        164.1778
0.196                  0.9973884        162.7881
0.2                    0.9982514        161.4056
0.204                  0.9993944        160.0209
0.208                   1.000617        158.6289
0.212                   1.001709        157.2297
0.216                   1.002491        155.8282
0.22                    1.002835        154.4326
0.224                   1.002694        153.0534
0.228                   1.002101         151.701
0.232                   1.001164        150.3842
0.236                   1.000048        149.1086
0.24                   0.9989455        147.8752
0.244                  0.9980443        146.6809
0.248                  0.9974949        145.5181
0.252                  0.9973851        144.3766
0.256                   0.997726        143.2451
0.26                   0.9984513        142.1129
0.264                  0.9994299         140.972
0.268                    1.00049        139.8182
0.272                   1.001447        138.6515
0.276                   1.002139        137.4765
0.28                     1.00245        136.3006
0.284                   1.002333        135.1333
0.288                   1.001812        133.9845
0.292                   1.000981        132.8624
0.296                  0.9999855        131.7724
0.3                    0.9989983        130.7162
0.304                    0.99819         129.691
0.308                  0.9976986        128.6907
0.312                  0.9976058        127.7061
0.316                  0.9979244         126.727
0.32                   0.9985948         125.744
0.324                  0.9994978        124.7498
0.328                   1.000474        123.7406
0.332                   1.001355        122.7166
0.336                   1.001989         121.682
0.34                    1.002268        120.6441
0.344                   1.002146        119.6118
0.348                   1.001647        118.5944
0.352                    1.00086        117.5998
0.356                  0.9999223        116.6333
0.36                   0.9989972        115.6964
0.364                  0.9982462        114.7866
0.368                  0.9977997         113.898
0.372                   0.997734        113.0221
0.376                  0.9980595        112.1491
0.38                   0.9987177        111.2701
0.384                  0.9995924        110.3783
0.388                    1.00053        109.4703
0.392                   1.001368        108.5464
0.396                    1.00196         107.611
0.4                     1.002204        106.6711
0.404                   1.002059        105.7357
0.408                   1.001551        104.8137
0.412                   1.000769        103.9129
0.416                  0.9998491        103.0382
0.42                   0.9989527        102.1911
0.424                  0.9982365        101.3688
0.428                  0.9978262        100.5656
0.432                  0.9977939        99.77271
0.436                  0.9981451        98.98082
0.44                    0.998818        98.18114
0.444                  0.9996942        97.36714
0.448                    1.00062        96.53572
0.452                   1.001433         95.6876
0.456                   1.001992        94.82727
0.46                    1.002198        93.96205
0.464                   1.002014        93.10094
0.468                   1.001473        92.25297
0.472                   1.000668        91.42567
0.476                  0.9997394        90.62383
0.48                   0.9988494        89.84846
0.484                  0.9981546        89.09673
0.488                  0.9977778         88.3623
0.492                  0.9977862        87.63645
0.496                   0.998179        86.90963
0.5                    0.9988875        86.17312
0.504                  0.9997871        85.42062
0.508                    1.00072        84.64936
0.512                   1.001521        83.86048
0.516                    1.00205        83.05891
0.52                    1.002212         82.2524
0.524                   1.001977        81.45021
0.528                   1.001384        80.66148
0.532                   1.000536        79.89374
0.536                  0.9995798        79.15149
0.54                   0.9986833        78.43539
0.544                  0.9980046        77.74204
0.548                  0.9976647        77.06468
0.552                  0.9977252        76.39406
0.556                  0.9981767        75.72042
0.56                   0.9989409        75.03494
0.564                  0.9998836        74.33151
0.568                   1.000838        73.60778
0.572                   1.001637        72.86544
0.576                   1.002137           72.11
0.58                    1.002248        71.34983
0.584                   1.001949        70.59463
0.588                    1.00129        69.85377
0.592                   1.000382        69.13482
0.596                  0.9993857        68.44192
0.6                    0.9984752        67.77525
0.604                  0.9978126         67.1308
0.608                   0.997517        66.50097
0.612                  0.9976432        65.87601
0.616                  0.9981714        65.24567
0.62                     0.99901        64.60104
0.624                   1.000012        63.93624
0.628                      1.001        63.24934
0.632                     1.0018        62.54277
0.636                   1.002268        61.82285
0.64                    1.002319        61.09867
0.644                   1.001941        60.38052
0.648                   1.001197        59.67814
0.652                   1.000214        58.99901
0.656                  0.9991654        58.34702
0.66                   0.9982355        57.72164
0.664                  0.9975905        57.11801
0.668                  0.9973477        56.52769
0.672                  0.9975539        55.94008
0.676                  0.9981753        55.34443
0.68                   0.9991044        54.73172
0.684                   1.000178        54.09625
0.688                   1.001206        53.43674
0.692                   1.002006        52.75649
0.696                   1.002434        52.06275
0.7                      1.00241        51.36557
0.704                   1.001934        50.67594
0.708                   1.001086        50.00398
0.712                   1.000012        49.35717
0.716                  0.9988988         48.7389
0.72                   0.9979447        48.14791
0.724                   0.997321        47.57825
0.728                  0.9971419        47.02039
0.732                  0.9974434        46.46283
0.736                  0.9981757        45.89419
0.74                   0.9992115        45.30527
0.744                   1.000368        44.69072
0.748                   1.001441           44.05
0.752                   1.002238        43.38746
0.756                   1.002614        42.71153
0.76                    1.002497        42.03332
0.764                   1.001904        41.36467
0.768                   1.000931        40.71613
0.772                  0.9997486        40.09509
0.776                   0.998562        39.50441
0.78                   0.9975829         38.9418
0.784                   0.996988        38.40009
0.788                  0.9968875        37.86844
0.792                  0.9973042        37.33426
0.796                  0.9981684        36.78547
0.8                    0.9993294        36.21273
0.804                   1.000582        35.61114
0.808                   1.001704        34.98107
0.812                   1.002493        34.32813
0.816                   1.002804        33.66213
0.82                    1.002577        32.99544
0.824                   1.001843        32.34085
0.828                   1.000726        31.70935
0.832                  0.9994195        31.10821
0.836                  0.9981517        30.53959
0.84                   0.9971494        29.99996
0.844                   0.996595        29.48069
0.848                  0.9965926         28.9694
0.852                  0.9971489        28.45225
0.856                    0.99817        27.91639
0.86                   0.9994775         27.3524
0.864                    1.00084        26.75591
0.868                   1.002015        26.12845
0.872                    1.00279        25.47712
0.876                   1.003022        24.81333
0.88                    1.002661        24.15092
0.884                   1.001763        23.50374
0.888                   1.000479        22.88326
0.892                  0.9990303        22.29655
0.896                  0.9976731        21.74485
0.9                    0.9966507        21.22322
0.904                  0.9961506        20.72122
0.908                  0.9962693        20.22471
0.912                  0.9969932        19.71838
0.916                  0.9981993        19.18858
0.92                    0.999677        18.62582
0.924                   1.001165        18.02646
0.928                   1.002396        17.39341
0.932                   1.003149        16.73553
0.936                   1.003281        16.06615
0.94                    1.002759        15.40076
0.944                   1.001665        14.75442
0.948                   1.000184        14.13913
0.952                  0.9985713        13.56163
0.956                  0.9971135        13.02209
0.96                   0.9960731        12.51379
0.964                  0.9956429        12.02419
0.968                  0.9959086        11.53707
0.972                   0.996832        11.03545
0.976                  0.9982558        10.50477
0.98                   0.9999307        9.935519
0.984                    1.00156        9.325008
0.988                   1.002851        8.677783
0.992                   1.003569        8.004831
0.996                   1.003576        7.321683
1                       1.002858        6.645805
1.004                   1.001529        5.993636
1.008                  0.9998129        5.377729
1.012                  0.9980079        4.804442
1.016                   0.996434        4.272576
1.02                   0.9953764        3.773314
1.024                  0.9950331        3.291582
1.028                  0.9954769        2.808674
1.032                  0.9966394        2.305676
1.036                  0.9983214        1.766971
1.04                    1.000228        1.183124
1.044                   1.002021       0.5525729
1.048                   1.003377      -0.1181293
1.052                   1.004047      -0.8154739
1.056                   1.003898       -1.521293
1.06                    1.002941       -2.215799
1.064                   1.001326       -2.880912
1.068                  0.9993279       -3.503422
1.072                   0.997292       -4.077468
1.076                  0.9955803       -4.605892
1.08                    0.994505       -5.100081
1.084                    0.99427       -5.578177
1.088                   0.994932       -6.061882
1.092                  0.9963856       -6.572463
1.096                  0.9983813       -7.126774
1.1                     1.000569       -7.734168
1.104                   1.002559       -8.394784
1.108                   1.003992       -9.099633
1.112                   1.004601       -9.832211
1.116                    1.00426        -10.5711
1.12                    1.003008       -11.29371
1.124                   1.001043       -11.97992
1.128                  0.9986968       -12.61567
1.132                  0.9963759        -13.1957
1.136                  0.9944943       -13.72485
1.14                   0.9933974       -14.21765
1.144                  0.9932975       -14.69607
1.148                  0.9942308       -15.18555
1.152                  0.9960473        -15.7103
1.156                  0.9984352       -16.28873
1.16                    1.000975        -16.9301
1.164                   1.003214       -17.63289
1.168                   1.004746       -18.38511
1.172                   1.005283       -19.16644
1.176                   1.004703       -19.95152
1.18                     1.00308       -20.71414
1.184                   1.000671       -21.43159
1.188                  0.9978803       -22.08863
1.192                  0.9951914       -22.68056
1.196                  0.9930854       -23.21467
1.2                    0.9919526       -23.70948
1.204                  0.9920176       -24.19183
1.208                  0.9932936       -24.69203
1.212                  0.9955747       -25.23816
1.216                  0.9984689        -25.8508
1.22                    1.001468       -26.53921
1.224                   1.004038       -27.29981
1.228                   1.005708       -28.11688
1.232                   1.006159       -28.96528
1.236                   1.005273       -29.81449
1.24                    1.003165       -30.63354
1.244                   1.000165       -31.39604
1.248                  0.9967738       -32.08493
1.252                  0.9935765       -32.69599
1.256                  0.9911467       -33.23947
1.26                    0.989939        -33.7391
1.264                  0.9902007       -34.22825
1.268                  0.9919186       -34.74394
1.272                   0.994815       -35.31972
1.276                  0.9983932       -35.97937
1.28                    1.002025       -36.73251
1.284                   1.005059       -37.57304
1.288                   1.006937       -38.48046
1.292                   1.007288       -39.42321
1.296                   1.005991       -40.36372
1.3                     1.003212       -41.26424
1.304                  0.9993755       -42.09292
1.308                  0.9951114       -42.82953
1.312                  0.9911521       -43.46987
1.316                  0.9882072       -44.02786
1.32                    0.986833       -44.53427
1.324                  0.9873204       -45.03192
1.328                  0.9896302       -45.56776
1.332                  0.9933896       -46.18383
1.336                  0.9979545       -46.90918
1.34                    1.002521       -47.75461
1.344                   1.006266       -48.71111
1.348                   1.008488       -49.75167
1.352                   1.008726       -50.83574
1.356                   1.006841       -51.91542
1.36                    1.003053       -52.94252
1.364                  0.9979183       -53.87616
1.368                  0.9922558       -54.69008
1.372                  0.9870239        -55.3787
1.376                  0.9831561       -55.96033
1.38                    0.981388       -56.47608
1.384                  0.9821051       -56.98366
1.388                  0.9852514       -57.54659
1.392                  0.9903228       -58.22177
1.396                  0.9964492       -59.04825
1.4                     1.002545        -60.0404
1.404                   1.007496       -61.18602
1.408                   1.010346         -62.449
1.412                   1.010455       -63.77523
1.416                   1.007611       -65.10018
1.42                    1.002084       -66.35786
1.424                  0.9946115       -67.49039
1.428                  0.9863181       -68.45824
1.432                  0.9785545       -69.24974
1.436                  0.9726783       -69.88757
1.44                      0.9698       -70.42951
1.444                  0.9705452        -70.9607
1.448                  0.9748957       -71.57799
1.452                  0.9821571       -72.37023
1.456                  0.9910648       -73.40053
1.46                    1.000001       -74.69529
1.464                   1.007263       -76.24172
1.468                   1.011337       -77.99178
1.472                   1.011129       -79.87017
1.476                    1.00614       -81.78371
1.48                   0.9965781       -83.63191
1.484                  0.9833908       -85.31902
1.488                  0.9682072       -86.76901
1.492                  0.9531687       -87.94354
1.496                  0.9406295       -88.86069
1.5                    0.9327327       -89.60757
1.504                  0.9309291       -90.33792
1.508                  0.9355652       -91.24855
1.512                  0.9456814        -92.5398
1.516                  0.9590961       -94.37586
1.52                   0.9727291       -96.86056
1.524                  0.9830391       -100.0339
1.528                  0.9864463       -103.8841
1.532                  0.9796704       -108.3646
1.536                  0.9599647       -113.4108
1.54                   0.9252613       -118.9514
1.544                  0.8742475       -124.9156
1.548                  0.8063941       -131.2371
1.552                  0.7219456       -137.8554
1.556                  0.6218827       -144.7164
1.56                   0.5078581       -151.7721
1.564                  0.3821135       -158.9804
1.568                  0.2473765       -166.3092
1.572                  0.1067441       -173.7768
1.576                 0.03644856      -0.5149965
1.58                   0.1787543       -8.308114
1.584                  0.3167691       -15.71023
1.588                  0.4472568       -23.00708
1.592                  0.5672868       -30.17844
1.596                  0.6743568       -37.18617
1.6                    0.7665029       -43.98499
1.604                  0.8423933       -50.52354
1.608                  0.9014024        -56.7441
1.612                  0.9436643       -62.58242
1.616                  0.9700978       -67.96853
1.62                   0.9824022       -72.82902
1.624                  0.9830101       -77.09238
1.628                  0.9749839       -80.69845
1.632                   0.961833       -83.61285
1.636                  0.9472293        -85.8452
1.64                   0.9346173       -87.46626
1.644                  0.9267567       -88.61439
1.648                  0.9253048       -89.48226
1.652                  0.9305813       -90.28209
1.656                  0.9416211       -91.20137
1.66                   0.9565015       -92.36794
1.664                  0.9728226       -93.83618
1.668                  0.9881861       -95.59371
1.672                   1.000574       -97.57888
1.676                   1.008591        -99.7004
1.68                     1.01158       -101.8543
1.684                   1.009639       -103.9373
1.688                   1.003558       -105.8579
1.692                  0.9946798       -107.5464
1.696                  0.9847079       -108.9643
1.7                    0.9754463        -110.112
1.704                  0.9685159       -111.0315
1.708                  0.9650828        -111.801
1.712                   0.965659       -112.5213
1.716                   0.970033       -113.2953
1.72                   0.9773467        -114.207
1.724                  0.9862956       -115.3076
1.728                  0.9953915       -116.6101
1.732                   1.003222       -118.0923
1.736                   1.008668       -119.7051
1.74                    1.011043        -121.383
1.744                   1.010166        -123.054
1.748                   1.006361       -124.6497
1.752                   1.000391       -126.1138
1.756                  0.9933367       -127.4101
1.76                   0.9864247       -128.5283
1.764                  0.9808335       -129.4868
1.768                  0.9774935       -130.3311
1.772                  0.9769269       -131.1253
1.776                   0.979164       -131.9405
1.78                   0.9837541       -132.8406
1.784                  0.9898666       -133.8707
1.788                   0.996456       -135.0505
1.792                   1.002452       -136.3736
1.796                   1.006929       -137.8107
1.8                     1.009247       -139.3166
1.804                   1.009128       -140.8376
1.808                   1.006686       -142.3194
1.812                   1.002394       -143.7147
1.816                  0.9970122       -144.9898
1.82                   0.9914612       -146.1299
1.824                  0.9866772       -147.1423
1.828                  0.9834549       -148.0556
1.832                  0.9823118       -148.9152
1.836                  0.9834012       -149.7752
1.84                    0.986493       -150.6879
1.844                  0.9910253       -151.6941
1.848                  0.9962161       -152.8167
1.852                   1.001204        -154.058
1.856                   1.005194       -155.4007
1.86                    1.007579       -156.8124
1.864                   1.008025       -158.2509
1.868                   1.006516       -159.6714
1.872                   1.003344       -161.0323
1.876                  0.9990608       -162.3014
1.88                   0.9943924       -163.4612
1.884                  0.9901194       -164.5115
1.888                    0.98695       -165.4704
1.892                  0.9853997       -166.3712
1.896                  0.9857036       -167.2569
1.9                    0.9877791       -168.1722
1.904                  0.9912471       -169.1551
1.908                  0.9955058       -170.2305
1.912                  0.9998409       -171.4067
1.916                   1.003547       -172.6749
1.92                    1.006041       -174.0118
1.924                   1.006947       -175.3839
1.928                   1.006154       -176.7528
1.932                   1.003818       -178.0812
1.936                   1.000341       -179.3378
1.94                   0.9963076        179.4973
1.944                  0.9923855        178.4298
1.948                  0.9892223        177.4496
1.952                  0.9873357        176.5319
1.956                  0.9870241         175.642
1.96                   0.9883181        174.7407
1.964                  0.9909778        173.7921
1.968                    0.99454        172.7697
1.972                  0.9984031        171.6603
1.976                    1.00193         170.466
1.98                    1.004554        169.2029
1.984                   1.005864        167.8977
1.988                   1.005667        166.5834
1.992                   1.004012        165.2944
1.996                    1.00118        164.0613
2                      0.9976391        162.9063
2.004                  0.9939711        161.8397
2.008                  0.9907781        160.8576
2.012                   0.988582        159.9426
2.016                  0.9877375        159.0664
2.02                   0.9883702        158.1943
2.024                  0.9903577        157.2918
2.028                  0.9933527        156.3309
2.032                  0.9968474        155.2942
2.036                   1.000261         154.178
2.04                    1.003035        152.9919
2.044                   1.004725        151.7568
2.048                   1.005064        150.5013
2.052                   1.004004        149.2573
2.056                   1.001719        148.0553
2.06                   0.9985786        146.9196
2.064                  0.9950913        145.8647
2.068                  0.9918224        144.8928
2.072                   0.989304        143.9926
2.076                  0.9879446        143.1413
2.08                   0.9879601        142.3083
2.084                   0.989336        141.4602
2.088                  0.9918312         140.567
2.092                  0.9950212        139.6073
2.096                  0.9983724        138.5717
2.1                     1.001331        137.4637
2.104                   1.003411        136.2988
2.108                   1.004274        135.1015
2.112                   1.003772        133.9018
2.116                   1.001979        132.7304
2.12                   0.9991703        131.6141
2.124                  0.9957873        130.5721
2.128                  0.9923678         129.612
2.132                  0.9894603        128.7291
2.136                  0.9875348        127.9058
2.14                   0.9869021        127.1149
2.144                  0.9876594        126.3238
2.148                  0.9896725        125.5002
2.152                  0.9925983         124.618
2.156                  0.9959448        123.6615
2.16                   0.9991523        122.6277
2.164                   1.001685        121.5264
2.168                   1.003117        120.3785
2.172                   1.003193        119.2121
2.176                   1.001873        118.0588
2.18                   0.9993364        116.9488
2.184                  0.9959585        115.9066
2.188                  0.9922556        114.9465
2.192                  0.9888068        114.0707
2.196                  0.9861605        113.2674
2.2                    0.9847429        112.5128
2.204                   0.984783        111.7743
2.208                   0.986269        111.0164
2.212                  0.9889477        110.2067
2.216                  0.9923654        109.3215
2.22                   0.9959436          108.35
2.224                  0.9990718        107.2953
2.228                   1.001206        106.1737
2.232                   1.001953        105.0123
2.236                    1.00113        103.8443
2.24                   0.9987993        102.7049
2.244                  0.9952606        101.6257
2.248                  0.9910147        100.6302
2.252                  0.9866921        99.72924
2.256                  0.9829566        98.91852
2.26                    0.980397        98.17817
2.264                  0.9794245        97.47507
2.268                   0.980194        96.76814
2.272                  0.9825702        96.01534
2.276                  0.9861421        95.18115
2.28                   0.9902885        94.24277
2.284                   0.994277        93.19358
2.288                  0.9973808        92.04399
2.292                  0.9989922        90.81949
2.296                  0.9987163        89.55674
2.3                    0.9964369        88.29856
2.304                  0.9923434        87.08806
2.308                  0.9869168        85.96231
2.312                  0.9808726        84.94625
2.316                  0.9750619        84.04732
2.32                   0.9703414        83.25209
2.324                  0.9674265        82.52618
2.328                  0.9667565        81.81833
2.332                  0.9683973         81.0686
2.336                    0.97201        80.21889
2.34                    0.976891        79.22324
2.344                  0.9820784        78.05574
2.348                  0.9864996        76.71404
2.352                  0.9891346        75.21911