! TOUCHSTONE file generated by CST MICROWAVE STUDIO
! Date and time: Tue Jun 14 12:12:48 2022
! Project name: AppElm_antenne_patch_FR4.cst
! Parameters = {L=45; W=58.5; e=0.035; h=1.6; lambda=0.190476; ls=120; w0=2.667; w1=0.847; ws=120; y0=18; y1=23.8}
! Header version: 2018
! Port assignment regex: !\s*Touchstone port\s*([0-9]+)\s*=\s*(CST MWS port|CST DS port)\s*([0-9]+|Zmin|Zmax)\s*\(\"(.*)\"\)(\s*mode\s*([0-9]+))?.*
! Touchstone port assignment:
! Touchstone port 1 = CST MWS port 1 ("")
# GHz S MA R 50
0                      0.9870794              -0
0.004                  0.9878378       -9.980011
0.008                  0.9900093       -19.86654
0.012                  0.9932995       -29.57099
0.016                  0.9972676       -39.01369
0.02                    1.001392       -48.12653
0.024                   1.005146       -56.85404
0.028                   1.008066       -65.15329
0.032                   1.009812       -72.99304
0.036                    1.01021       -80.35284
0.04                    1.009264       -87.22229
0.044                   1.007159        -93.6007
0.048                   1.004225       -99.49726
0.052                   1.000894       -104.9312
0.056                  0.9976415       -109.9318
0.06                   0.9949136       -114.5375
0.064                  0.9930682       -118.7944
0.068                  0.9923227       -122.7527
0.072                  0.9927255       -126.4637
0.076                  0.9941543       -129.9745
0.08                    0.996342       -133.3254
0.084                  0.9989234       -136.5467
0.088                   1.001495       -139.6576
0.092                   1.003675        -142.667
0.096                   1.005161       -145.5747
0.1                     1.005769       -148.3743
0.104                   1.005451       -151.0562
0.108                   1.004304       -153.6106
0.112                   1.002542       -156.0304
0.116                   1.000466       -158.3139
0.12                   0.9984146       -160.4657
0.124                  0.9967089       -162.4973
0.128                  0.9956057       -164.4265
0.132                  0.9952564        -166.275
0.136                   0.995687        -168.066
0.14                   0.9967979       -169.8211
0.144                  0.9983839       -171.5573
0.148                   1.000172       -173.2853
0.152                   1.001868       -175.0088
0.156                   1.003202       -176.7247
0.16                    1.003974       -178.4241
0.164                   1.004079        179.9051
0.168                   1.003521        178.2762
0.172                   1.002413        176.7012
0.176                   1.000949        175.1883
0.18                     0.99938        173.7408
0.184                   0.997965        172.3562
0.188                  0.9969333        171.0261
0.192                  0.9964451        169.7377
0.196                  0.9965671        168.4757
0.2                    0.9972631        167.2245
0.204                   0.998402        165.9711
0.208                  0.9997827        164.7065
0.212                    1.00117        163.4273
0.216                   1.002331        162.1357
0.22                    1.003081        160.8389
0.224                   1.003301        159.5474
0.228                   1.002967        158.2736
0.232                   1.002145        157.0289
0.236                    1.00098        155.8226
0.24                   0.9996722        154.6596
0.244                  0.9984441        153.5401
0.248                  0.9975004        152.4588
0.252                  0.9969956        151.4065
0.256                  0.9970081        150.3709
0.26                   0.9975269        149.3391
0.264                  0.9984555        148.2997
0.268                  0.9996297        147.2447
0.272                   1.000846        146.1703
0.276                   1.001899        145.0781
0.28                    1.002611         143.974
0.284                   1.002867        142.8674
0.288                   1.002629        141.7694
0.292                   1.001944        140.6911
0.296                   1.000931        139.6414
0.3                     0.999767        138.6258
0.304                  0.9986506        137.6451
0.308                  0.9977726        136.6958
0.312                   0.997281        135.7699
0.316                  0.9972566        134.8567
0.32                   0.9976994        133.9445
0.324                  0.9985283        133.0229
0.328                  0.9995977        132.0841
0.332                   1.000721        131.1246
0.336                   1.001706        130.1454
0.34                    1.002384        129.1519
0.344                   1.002642        128.1528
0.348                   1.002439        127.1586
0.352                   1.001811        126.1799
0.356                   1.000869        125.2254
0.36                   0.9997769        124.3007
0.364                  0.9987224         123.407
0.368                  0.9978885        122.5411
0.372                  0.9974182        121.6956
0.376                  0.9973919        120.8607
0.38                   0.9978123        120.0251
0.384                  0.9986042         119.179
0.388                  0.9996291        118.3147
0.392                   1.000708        117.4289
0.396                   1.001655        116.5225
0.4                     1.002306        115.6007
0.404                    1.00255         114.672
0.408                   1.002347        113.7467
0.412                   1.001733        112.8352
0.416                   1.000813         111.946
0.42                   0.9997502        111.0845
0.424                  0.9987275        110.2521
0.428                  0.9979238        109.4455
0.432                  0.9974795        108.6576
0.436                  0.9974724        107.8786
0.44                   0.9979034        107.0975
0.444                  0.9986968        106.3046
0.448                  0.9997136        105.4925
0.452                   1.000776         104.658
0.456                   1.001699        103.8022
0.46                    1.002321        102.9306
0.464                   1.002535        102.0516
0.468                   1.002302        101.1757
0.472                   1.001663        100.3131
0.476                   1.000728        99.47234
0.48                   0.9996582        98.65879
0.484                  0.9986411        97.87341
0.488                  0.9978544         97.1128
0.492                  0.9974364        96.36961
0.496                   0.997461        95.63378
0.5                    0.9979243        94.89441
0.504                  0.9987451        94.14163
0.508                  0.9997788        93.36838
0.512                   1.000844        92.57167
0.516                   1.001754        91.75301
0.52                    1.002347        90.91816
0.524                    1.00252        90.07605
0.528                    1.00224        89.23731
0.532                   1.001554        88.41235
0.536                   1.000579        87.60967
0.54                   0.9994862        86.83433
0.544                  0.9984656        86.08702
0.548                  0.9976973         85.3638
0.552                  0.9973179        84.65682
0.556                  0.9973958        83.95562
0.56                    0.997919        83.24898
0.564                  0.9987964        82.52701
0.568                   0.999874        81.78282
0.572                   1.000962        81.01381
0.576                    1.00187        80.22204
0.58                    1.002436        79.41388
0.584                   1.002559        78.59885
0.588                   1.002216          77.788
0.592                   1.001463        76.99201
0.596                    1.00043        76.21936
0.6                    0.9992975        75.47484
0.604                  0.9982637        74.75859
0.608                  0.9975124        74.06601
0.612                  0.9971779        73.38852
0.616                   0.997322        72.71504
0.62                   0.9979214        72.03394
0.624                  0.9988719        71.33521
0.628                   1.000006        70.61217
0.632                   1.001125        69.86274
0.636                   1.002029        69.08972
0.64                    1.002557        68.30026
0.644                   1.002614        67.50468
0.648                   1.002186        66.71459
0.652                   1.001343        65.94106
0.656                   1.000231         65.1925
0.66                   0.9990438        64.47329
0.664                    0.99799        63.78294
0.668                  0.9972577        63.11593
0.672                  0.9969791        62.46277
0.676                   0.997207        61.81155
0.68                    0.997904         61.1501
0.684                   0.998949        60.46827
0.688                   1.000158        59.75967
0.692                   1.001318        59.02282
0.696                   1.002223        58.26144
0.7                      1.00271         57.4837
0.704                    1.00269        56.70082
0.708                   1.002162        55.92521
0.712                   1.001215        55.16822
0.716                   1.000011        54.43828
0.72                   0.9987611        53.73931
0.724                  0.9976868        53.06992
0.728                  0.9969805        52.42356
0.732                  0.9967717        51.78956
0.736                  0.9971013        51.15507
0.74                   0.9979147        50.50731
0.744                  0.9990707        49.83596
0.748                   1.000366        49.13499
0.752                   1.001569        48.40376
0.756                   1.002468        47.64705
0.76                    1.002898        46.87424
0.764                   1.002779        46.09771
0.768                   1.002126        45.33067
0.772                   1.001046        44.58494
0.776                  0.9997269        43.86886
0.78                   0.9983978        43.18575
0.784                  0.9972941         42.5332
0.788                  0.9966144        41.90336
0.792                  0.9964834        41.28421
0.796                  0.9969289        40.66179
0.8                    0.9978753         40.0226
0.804                  0.9991572        39.35619
0.808                   1.000548        38.65696
0.812                     1.0018        37.92524
0.816                   1.002688        37.16709
0.82                    1.003051        36.39333
0.824                   1.002817        35.61759
0.828                   1.002019        34.85405
0.832                   1.000792          34.115
0.836                  0.9993459        33.40862
0.84                   0.9979346        32.73753
0.844                  0.9968092        32.09804
0.848                  0.9961735        31.48079
0.852                  0.9961463        30.87218
0.856                  0.9967387        30.25693
0.86                   0.9978506        29.62078
0.864                  0.9992878        28.95313
0.868                   1.000797          28.249
0.872                   1.002109        27.50982
0.876                   1.002989        26.74322
0.88                    1.003275        25.96163
0.884                   1.002909        25.18018
0.888                   1.001946        24.41416
0.892                   1.000549        23.67635
0.896                  0.9989574        22.97478
0.9                    0.9974523        22.31115
0.904                  0.9963023        21.68037
0.908                  0.9957171        21.07125
0.912                  0.9958079        20.46841
0.916                  0.9965659        19.85506
0.92                    0.997862        19.21609
0.924                  0.9994694        18.54083
0.928                   1.001104        17.82498
0.932                   1.002473        17.07136
0.936                    1.00333        16.28937
0.94                    1.003514        15.49334
0.944                   1.002983        14.70012
0.948                   1.001819        13.92625
0.952                   1.000216        13.18506
0.956                  0.9984508        12.48435
0.96                   0.9968341        11.82477
0.964                  0.9956555        11.19948
0.968                   0.995131        10.59519
0.972                  0.9953629        9.994393
0.976                  0.9963183         9.37857
0.98                   0.9978342        8.731601
0.984                  0.9996453        8.042732
0.988                   1.001431        7.308511
0.992                   1.002873        6.533352
0.996                   1.003709        5.728721
1                       1.003782        4.911163
1.004                   1.003066         4.09952
1.008                   1.001674        3.311763
1.012                  0.9998395          2.5619
1.016                  0.9978806        1.857425
1.02                   0.9961427        1.197753
1.024                  0.9949394       0.5740229
1.028                   0.994494     -0.02956119
1.032                  0.9948975      -0.6329937
1.036                  0.9960891       -1.256815
1.04                   0.9978652       -1.918297
1.044                   0.999915       -2.628258
1.048                   1.001876       -3.389139
1.052                   1.003396       -4.194625
1.056                   1.004199       -5.030789
1.06                    1.004128       -5.878465
1.064                    1.00318       -6.716438
1.068                   1.001502       -7.524983
1.072                  0.9993763       -8.289262
1.076                  0.9971684        -9.00207
1.08                   0.9952673       -9.665445
1.084                  0.9940161       -10.29063
1.088                   0.993648       -10.89638
1.092                  0.9942415        -11.5058
1.096                  0.9957029        -12.1418
1.1                    0.9977808       -12.82312
1.104                    1.00011       -13.56073
1.108                   1.002278       -14.35587
1.112                   1.003892       -15.20006
1.116                   1.004656        -16.0764
1.12                    1.004416       -16.96263
1.124                   1.003192        -17.8346
1.128                   1.001174        -18.6705
1.132                  0.9987011       -19.45438
1.136                  0.9961977       -20.17932
1.14                   0.9941067       -20.84906
1.144                  0.9928081       -21.47778
1.148                  0.9925486       -22.08796
1.152                  0.9933927       -22.70638
1.156                  0.9952066       -23.35916
1.16                   0.9976804       -24.06687
1.164                   1.000381       -24.84073
1.168                   1.002832       -25.68066
1.172                    1.00459       -26.57544
1.176                   1.005332       -27.50466
1.18                    1.004901       -28.44212
1.184                   1.003345       -29.36007
1.188                   1.000908       -30.23377
1.192                  0.9979943       -31.04575
1.196                   0.995106       -31.78922
1.2                    0.9927544       -32.46983
1.204                  0.9913698       -33.10536
1.208                  0.9912194       -33.72289
1.212                  0.9923533       -34.35405
1.216                  0.9945906       -35.02906
1.22                   0.9975477       -35.77102
1.224                   1.000707       -36.59166
1.228                   1.003506       -37.48938
1.232                   1.005438       -38.44967
1.236                   1.006136        -39.4476
1.24                    1.005443       -40.45195
1.244                   1.003434       -41.43013
1.248                    1.00042       -42.35345
1.252                  0.9968928       -43.20208
1.256                  0.9934554       -43.96904
1.26                   0.9907147       -44.66223
1.264                  0.9891735         -45.304
1.268                  0.9891333       -45.92765
1.272                  0.9906321        -46.5715
1.276                  0.9934301       -47.27161
1.28                   0.9970485       -48.05492
1.284                   1.000854       -48.93431
1.288                   1.004168       -49.90648
1.292                   1.006388       -50.95281
1.296                   1.007085        -52.0425
1.3                     1.006085       -53.13754
1.304                   1.003497       -54.19857
1.308                  0.9997121       -55.19106
1.312                   0.995343       -56.09137
1.316                  0.9911314       -56.89158
1.32                    0.987823       -57.60217
1.324                  0.9860314       -58.25158
1.328                   0.986118       -58.88185
1.332                   0.988114       -59.54114
1.336                  0.9917038       -60.27436
1.34                    0.996276        -61.1146
1.344                    1.00103       -62.07698
1.348                   1.005115       -63.15642
1.352                   1.007777       -64.32881
1.356                   1.008485       -65.55517
1.36                    1.007023       -66.78759
1.364                   1.003534       -67.97637
1.368                  0.9985146       -69.07756
1.372                  0.9927502       -70.06051
1.376                  0.9871962       -70.91445
1.38                   0.9828225       -71.65238
1.384                   0.980435       -72.31132
1.388                  0.9805152       -72.94684
1.392                  0.9831102       -73.62319
1.396                  0.9878068       -74.40064
1.4                    0.9937965        -75.3236
1.404                   1.000015       -76.41252
1.408                   1.005328       -77.66098
1.412                   1.008718       -79.03756
1.416                   1.009459       -80.49108
1.42                    1.007232       -81.95818
1.424                   1.002198       -83.37187
1.428                  0.9949965       -84.67116
1.432                  0.9866804       -85.81121
1.436                   0.978571       -86.77314
1.44                   0.9720509       -87.57148
1.444                  0.9683125       -88.25656
1.448                  0.9681117       -88.90866
1.452                   0.971586         -89.624
1.456                  0.9781919       -90.49529
1.46                   0.9867813       -91.59304
1.464                  0.9957978       -92.95279
1.468                    1.00354       -94.57081
1.472                   1.008434       -96.40682
1.476                   1.009279       -98.39145
1.48                    1.005432       -100.4355
1.484                  0.9969352       -102.4403
1.488                  0.9845578       -104.3092
1.492                  0.9697639       -105.9617
1.496                  0.9545672       -107.3509
1.5                     0.941261       -108.4814
1.504                  0.9320264       -109.4241
1.508                  0.9284635       -110.3174
1.512                  0.9311627       -111.3488
1.516                  0.9394539       -112.7188
1.52                   0.9514285       -114.6009
1.524                  0.9642133       -117.1134
1.528                  0.9743865        -120.312
1.532                  0.9784054       -124.1987
1.536                  0.9729605       -128.7382
1.54                   0.9552303       -133.8755
1.544                  0.9230434        -139.549
1.548                  0.8749674       -145.7001
1.552                  0.8103481       -152.2808
1.556                  0.7293073       -159.2616
1.56                   0.6327144        -166.645
1.564                  0.5221383       -174.4985
1.568                  0.3998008        176.9443
1.572                   0.268617        166.8701
1.576                  0.1331033        150.9023
1.58                  0.04075361        50.11346
1.584                  0.1596977       -13.46027
1.588                  0.2948876       -27.30878
1.592                  0.4245199       -36.95601
1.596                   0.544646         -45.347
1.6                    0.6525155       -53.10605
1.604                   0.746046       -60.41866
1.608                  0.8238142       -67.33531
1.612                  0.8851055       -73.85079
1.616                  0.9299569       -79.93153
1.62                   0.9591798       -85.52737
1.624                  0.9743533       -90.57908
1.628                  0.9777772       -95.02603
1.632                  0.9723687       -98.81632
1.636                  0.9614867       -101.9209
1.64                   0.9486596       -104.3508
1.644                  0.9372182       -106.1728
1.648                  0.9298675       -107.5158
1.652                  0.9282932       -108.5595
1.656                  0.9329303       -109.5037
1.66                    0.942993        -110.528
1.664                  0.9567633       -111.7588
1.668                    0.97203       -113.2547
1.672                  0.9865438       -115.0107
1.676                  0.9983849       -116.9737
1.68                    1.006206       -119.0605
1.684                   1.009354       -121.1743
1.688                   1.007895       -123.2184
1.692                   1.002548       -125.1069
1.696                  0.9945617       -126.7745
1.7                    0.9855184       -128.1861
1.704                   0.977093       -129.3425
1.708                  0.9707834       -130.2834
1.712                  0.9676606       -131.0812
1.716                  0.9681886       -131.8284
1.72                    0.972166        -132.619
1.724                  0.9788003       -133.5295
1.728                   0.986894       -134.6062
1.732                  0.9950875       -135.8606
1.736                   1.002099       -137.2718
1.74                    1.006922       -138.7946
1.744                   1.008958       -140.3684
1.748                   1.008077       -141.9278
1.752                    1.00461        -143.411
1.756                  0.9992828       -144.7687
1.76                    0.993091        -145.971
1.764                   0.987142       -147.0122
1.768                  0.9824687       -147.9125
1.772                  0.9798556       -148.7152
1.776                  0.9797045       -149.4789
1.78                   0.9819746       -150.2659
1.784                  0.9862066       -151.1306
1.788                  0.9916268       -152.1091
1.792                  0.9973003       -153.2151
1.796                   1.002299       -154.4392
1.8                     1.005854       -155.7526
1.804                   1.007466       -157.1135
1.808                   1.006969       -158.4742
1.812                   1.004543       -159.7882
1.816                   1.000672       -161.0169
1.82                   0.9960614       -162.1355
1.824                  0.9915201       -163.1367
1.828                  0.9878259       -164.0328
1.832                  0.9855932       -164.8531
1.836                  0.9851685       -165.6391
1.84                   0.9865756       -166.4367
1.844                  0.9895216       -167.2872
1.848                  0.9934616       -168.2204
1.852                  0.9977056       -169.2497
1.856                   1.001543       -170.3709
1.86                     1.00436       -171.5648
1.864                   1.005736       -172.8006
1.868                   1.005502        -174.042
1.872                   1.003755       -175.2524
1.876                   1.000835       -176.4006
1.88                   0.9972672       -177.4658
1.884                  0.9936727       -178.4404
1.888                  0.9906621       -179.3318
1.892                  0.9887336        179.8389
1.896                   0.988189        179.0409
1.9                    0.9890843        178.2387
1.904                  0.9912274        177.3996
1.908                  0.9942204        176.4988
1.912                  0.9975364        175.5236
1.916                   1.000615        174.4749
1.92                    1.002956        173.3661
1.924                     1.0042        172.2201
1.928                   1.004179        171.0653
1.932                   1.002938         169.931
1.936                   1.000718        168.8428
1.94                   0.9979157        167.8187
1.944                  0.9950156        166.8663
1.948                  0.9925064        165.9814
1.952                  0.9907999        165.1491
1.956                  0.9901624        164.3459
1.96                   0.9906707        163.5444
1.964                  0.9922055        162.7179
1.968                  0.9944773        161.8456
1.972                  0.9970826        160.9157
1.976                  0.9995772        159.9267
1.98                    1.001551        158.8875
1.984                   1.002694        157.8151
1.988                   1.002843        156.7316
1.992                   1.002001        155.6603
1.996                   1.000331        154.6224
2                      0.9981294        153.6336
2.004                  0.9957698        152.7016
2.008                  0.9936434        151.8249
2.012                  0.9920926        150.9933
2.016                   0.991355        150.1893
2.02                   0.9915256        149.3918
2.024                  0.9925443        148.5795
2.028                  0.9942121        147.7346
2.032                  0.9962294        146.8459
2.036                  0.9982498        145.9101
2.04                   0.9999392        144.9322
2.044                    1.00103        143.9238
2.048                   1.001358        142.9015
2.052                   1.000891        141.8836
2.056                  0.9997215        140.8874
2.06                   0.9980525        139.9268
2.064                  0.9961615        139.0096
2.068                  0.9943531        138.1369
2.072                    0.99291        137.3029
2.076                  0.9920465        136.4957
2.08                   0.9918773        135.6998
2.084                  0.9923998        134.8985
2.088                  0.9934998        134.0768
2.092                  0.9949749        133.2238
2.096                  0.9965695        132.3344
2.1                    0.9980188        131.4094
2.104                  0.9990901        130.4557
2.108                  0.9996183        129.4842
2.112                  0.9995267        128.5085
2.116                  0.9988369        127.5426
2.12                     0.99766        126.5984
2.124                   0.996178        125.6846
2.128                  0.9946139        124.8053
2.132                  0.9931953        123.9591
2.136                  0.9921219        123.1399
2.14                   0.9915337        122.3377
2.144                  0.9914934        121.5402
2.148                  0.9919782        120.7349
2.152                  0.9928869        119.9109
2.156                  0.9940573        119.0605
2.16                   0.9952923        118.1802
2.164                  0.9963907        117.2711
2.168                   0.997175        116.3383
2.172                  0.9975156        115.3903
2.176                  0.9973486        114.4375
2.18                   0.9966815        113.4908
2.184                  0.9955917          112.56
2.188                  0.9942153        111.6529
2.192                  0.9927274        110.7736
2.196                  0.9913188        109.9224
2.2                    0.9901693        109.0954
2.204                  0.9894227        108.2851
2.208                  0.9891665        107.4812
2.212                  0.9894184        106.6723
2.216                  0.9901223        105.8472
2.22                   0.9911546        104.9964
2.224                  0.9923403        104.1139
2.228                  0.9934751        103.1976
2.232                  0.9943538        102.2498
2.236                   0.994798        101.2773
2.24                   0.9946828        100.2902
2.244                  0.9939564        99.30054
2.248                  0.9926516        98.32118
2.252                  0.9908863        97.36369
2.256                  0.9888516         96.4365
2.26                   0.9867896        95.54355
2.264                    0.98496        94.68307
2.268                  0.9836017         93.8473
2.272                  0.9828931        93.02317
2.276                  0.9829189        92.19385
2.28                   0.9836483        91.34114
2.284                  0.9849313        90.44824
2.288                  0.9865138        89.50267
2.292                  0.9880706         88.4982
2.296                   0.989252        87.43632
2.3                    0.9897373         86.3262
2.304                  0.9892864        85.18375
2.308                  0.9877841        84.02945
2.312                   0.985267        82.88558
2.316                  0.9819321        81.77267
2.32                   0.9781178        80.70604
2.324                  0.9742631        79.69234
2.328                  0.9708424        78.72719
2.332                  0.9682874        77.79431
2.336                  0.9669057        76.86668
2.34                   0.9668129        75.90997
2.344                  0.9678925        74.88779
2.348                  0.9697942        73.76772
2.352                  0.9719738         72.5267