! TOUCHSTONE file generated by CST MICROWAVE STUDIO
! Date and time: Tue Jun 14 12:12:52 2022
! Project name: AppElm_antenne_patch_FR4.cst
! Parameters = {L=45; W=58.5; e=0.035; h=1.6; lambda=0.190476; ls=120; w0=3.175; w1=0.847; ws=120; y0=18; y1=23.8}
! Header version: 2018
! Port assignment regex: !\s*Touchstone port\s*([0-9]+)\s*=\s*(CST MWS port|CST DS port)\s*([0-9]+|Zmin|Zmax)\s*\(\"(.*)\"\)(\s*mode\s*([0-9]+))?.*
! Touchstone port assignment:
! Touchstone port 1 = CST MWS port 1 ("")
# GHz S MA R 50
0                      0.9856067              -0
0.004                  0.9864322       -9.993013
0.008                  0.9887979       -19.89072
0.012                  0.9923895       -29.60294
0.016                  0.9967361       -39.04883
0.02                    1.001279       -48.15955
0.024                   1.005449       -56.87928
0.028                   1.008744       -65.16497
0.032                   1.010788       -72.98532
0.036                   1.011377       -80.31967
0.04                    1.010497       -87.15714
0.044                   1.008325       -93.49631
0.048                   1.005199       -99.34538
0.052                   1.001571       -104.7226
0.056                   0.997951       -109.6564
0.06                   0.9948293       -114.1851
0.064                  0.9926127       -118.3551
0.068                   0.991566       -122.2183
0.072                  0.9917762       -125.8282
0.076                  0.9931458       -129.2352
0.08                   0.9954137       -132.4827
0.084                  0.9982014       -135.6042
0.088                   1.001074       -138.6214
0.092                   1.003607       -141.5449
0.096                   1.005448       -144.3749
0.1                     1.006361       -147.1047
0.104                   1.006256        -149.723
0.108                   1.005199       -152.2178
0.112                   1.003392       -154.5794
0.116                   1.001143       -156.8029
0.12                   0.9988143       -158.8904
0.124                  0.9967719       -160.8515
0.128                  0.9953241       -162.7031
0.132                  0.9946769       -164.4673
0.136                  0.9949035       -166.1689
0.14                   0.9959364       -167.8321
0.144                  0.9975821       -169.4772
0.148                  0.9995572       -171.1181
0.152                   1.001536       -172.7608
0.156                   1.003205       -174.4039
0.16                    1.004308       -176.0391
0.164                   1.004689       -177.6536
0.168                   1.004308       -179.2322
0.172                   1.003248        179.2395
0.176                   1.001697         177.773
0.18                   0.9999181        176.3746
0.184                  0.9982058        175.0442
0.188                  0.9968378        173.7751
0.192                  0.9960305        172.5548
0.196                  0.9959041        171.3668
0.2                    0.9964634        170.1935
0.204                  0.9976005        169.0187
0.208                  0.9991139        167.8302
0.212                   1.000745        166.6218
0.216                   1.002222        165.3934
0.22                    1.003303        164.1512
0.224                   1.003818        162.9061
0.228                   1.003692        161.6718
0.232                   1.002957        160.4623
0.236                   1.001742        159.2899
0.24                    1.000257        158.1627
0.244                  0.9987519        157.0834
0.248                  0.9974797        156.0489
0.252                  0.9966501        155.0503
0.256                  0.9963971        154.0749
0.26                   0.9967551        153.1076
0.264                  0.9976551        152.1342
0.268                  0.9989374        151.1431
0.272                    1.00038        150.1277
0.276                   1.001737        149.0872
0.28                     1.00278        148.0263
0.284                   1.003338        146.9544
0.288                   1.003322         145.884
0.292                   1.002739        144.8284
0.296                   1.001694        143.7997
0.3                     1.000365        142.8064
0.304                  0.9989813        141.8526
0.308                  0.9977776        140.9363
0.312                  0.9969588        140.0504
0.316                  0.9966619        139.1838
0.32                   0.9969343        138.3228
0.324                  0.9977247        137.4539
0.328                  0.9988936        136.5662
0.332                   1.000238        135.6529
0.336                   1.001526        134.7127
0.34                    1.002538        133.7495
0.344                   1.003104        132.7721
0.348                   1.003129        131.7923
0.352                   1.002612         130.823
0.356                   1.001644        129.8759
0.36                    1.000392        128.9599
0.364                  0.9990719         128.079
0.368                  0.9979115        127.2323
0.372                  0.9971108        126.4131
0.376                  0.9968075        125.6111
0.38                   0.9970527        124.8131
0.384                  0.9978023        124.0062
0.388                  0.9989244        123.1795
0.392                   1.000223        122.3265
0.396                   1.001474        121.4456
0.4                     1.002461        120.5406
0.404                   1.003016          119.62
0.408                   1.003043        118.6953
0.412                   1.002539        117.7793
0.416                   1.001592        116.8836
0.42                    1.000365         116.017
0.424                  0.9990711        115.1837
0.428                  0.9979348        114.3827
0.432                  0.9971542        113.6076
0.436                  0.9968654        112.8481
0.44                   0.9971188        112.0913
0.444                  0.9978697        111.3244
0.448                  0.9989866        110.5367
0.452                   1.000274        109.7217
0.456                   1.001508         108.878
0.46                    1.002473        108.0095
0.464                   1.003003        107.1248
0.468                   1.003005        106.2357
0.472                   1.002478        105.3547
0.476                   1.001512        104.4936
0.48                    1.000276        103.6611
0.484                  0.9989819        102.8613
0.488                   0.997857        102.0929
0.492                  0.9970981        101.3493
0.496                  0.9968391          100.62
0.5                    0.9971261        99.89185
0.504                   0.997909        99.15213
0.508                  0.9990504         98.3902
0.512                    1.00035        97.59972
0.516                   1.001581        96.77966
0.52                    1.002527        95.93436
0.524                   1.003022        95.07277
0.528                   1.002979        94.20686
0.532                   1.002403        93.34963
0.536                   1.001392        92.51282
0.54                    1.000121        91.70498
0.544                  0.9988111        90.92991
0.548                  0.9976913        90.18588
0.552                  0.9969592         89.4659
0.556                  0.9967449        88.75878
0.56                   0.9970879        88.05121
0.564                  0.9979287        87.33012
0.568                  0.9991198        86.58501
0.572                   1.000452        85.80979
0.576                   1.001691        85.00395
0.58                     1.00262        84.17245
0.584                   1.003073        83.32482
0.588                   1.002969        82.47362
0.592                   1.002324        81.63214
0.596                   1.001248        80.81229
0.6                    0.9999251        80.02248
0.604                  0.9985876        79.26602
0.608                  0.9974703         78.5406
0.612                  0.9967715        77.83846
0.616                  0.9966167        77.14773
0.62                   0.9970358        76.45455
0.624                  0.9979566        75.74554
0.628                   0.999218        75.01027
0.632                   1.000598        74.24307
0.636                   1.001854        73.44402
0.64                    1.002764        72.61892
0.644                   1.003165        71.77811
0.648                   1.002986        70.93483
0.652                   1.002253        70.10288
0.656                   1.001091         69.2943
0.66                   0.9997007         68.5173
0.664                  0.9983255        67.77466
0.668                  0.9972082        67.06327
0.672                  0.9965482        66.37442
0.676                  0.9964653        65.69534
0.68                   0.9969775        65.01144
0.684                  0.9979966        64.30905
0.688                   0.999344        63.57778
0.692                   1.000783        62.81244
0.696                   1.002059        62.01392
0.7                     1.002946        61.18893
0.704                   1.003285        60.34888
0.708                   1.003012        59.50784
0.712                   1.002171         58.6802
0.716                   1.000903        57.87818
0.72                   0.9994293        57.10971
0.724                  0.9980064        56.37697
0.728                  0.9968866        55.67583
0.732                  0.9962709        54.99644
0.736                  0.9962718        54.32498
0.74                   0.9968931        53.64602
0.744                  0.9980276        52.94546
0.748                  0.9994761        52.21301
0.752                   1.000983        51.44401
0.756                   1.002282        50.64034
0.76                    1.003141        49.80987
0.764                   1.003405        48.96517
0.768                   1.003022        48.12133
0.772                   1.002053        47.29338
0.776                   1.000661        46.49377
0.78                    0.999088        45.73015
0.784                  0.9976088        45.00389
0.788                  0.9964863        44.30972
0.792                  0.9959222        43.63647
0.796                  0.9960215        42.96901
0.8                    0.9967706        42.29098
0.804                    0.99804        41.58779
0.808                  0.9996068        40.84924
0.812                   1.001194        40.07139
0.816                    1.00252        39.25716
0.82                    1.003348        38.41581
0.824                   1.003526        37.56126
0.828                   1.003015        36.70976
0.832                   1.001898        35.87711
0.836                   1.000364        35.07602
0.84                   0.9986774        34.31377
0.844                  0.9971346        33.59085
0.848                  0.9960104        32.90062
0.852                  0.9955084        32.23037
0.856                  0.9957231         31.5635
0.86                   0.9966217        30.88253
0.864                  0.9980491         30.1723
0.868                  0.9997543        29.42278
0.872                   1.001436        28.63079
0.876                   1.002795        27.80053
0.88                    1.003588        26.94279
0.884                   1.003668        26.07309
0.888                   1.003012          25.209
0.892                   1.001726        24.36724
0.896                   1.000028        23.56078
0.9                    0.9982108        22.79654
0.904                  0.9965953        22.07393
0.908                  0.9954698        21.38477
0.912                  0.9950398        20.71457
0.916                  0.9953888          20.045
0.92                   0.9964613        19.35728
0.924                  0.9980722        18.63564
0.928                  0.9999388        17.87017
0.932                   1.001731         17.0586
0.936                    1.00313        16.20659
0.94                    1.003884        15.32672
0.944                   1.003851        14.43632
0.948                   1.003026        13.55453
0.952                   1.001543        12.69912
0.956                  0.9996532        11.88343
0.96                    0.997683        11.11393
0.964                  0.9959803        10.38885
0.968                  0.9948504        9.698224
0.972                  0.9945013         9.02545
0.976                  0.9950041        8.350205
0.98                   0.9962774        7.652183
0.984                  0.9981013        6.914842
0.988                   1.000156        6.128432
0.992                   1.002078        5.291685
0.996                   1.003524        4.411963
1                       1.004233        3.503913
1.004                   1.004068        2.586977
1.008                   1.003046        1.682148
1.012                   1.001329       0.8084725
1.016                  0.9992105      -0.0202325
1.02                   0.9970549      -0.7979447
1.024                   0.995243       -1.527794
1.028                  0.9941013       -2.221844
1.032                  0.9938418       -2.899165
1.036                  0.9945214       -3.582466
1.04                   0.9960289       -4.293907
1.044                  0.9981038       -5.050974
1.048                   1.000382       -5.863304
1.052                    1.00246       -6.731011
1.056                   1.003966       -7.644783
1.06                    1.004625       -8.587539
1.064                   1.004307       -9.537313
1.068                   1.003049       -10.47089
1.072                   1.001054       -11.36758
1.076                  0.9986566         -12.213
1.08                   0.9962724       -13.00147
1.084                  0.9943219       -13.73774
1.088                  0.9931579       -14.43633
1.092                  0.9929988        -15.1193
1.096                  0.9938864       -15.81226
1.1                    0.9956749       -16.53967
1.104                  0.9980547       -17.32028
1.108                   1.000608       -18.16367
1.112                   1.002883       -19.06867
1.116                   1.004472       -20.02365
1.12                     1.00508       -21.00861
1.124                   1.004583       -21.99852
1.128                   1.003042       -22.96737
1.132                   1.000705       -23.89246
1.136                  0.9979642       -24.75835
1.14                   0.9952914       -25.55987
1.144                    0.99316       -26.30349
1.148                  0.9919576       -27.00673
1.152                  0.9919135       -27.69534
1.156                  0.9930529       -28.39864
1.16                   0.9951886        -29.1441
1.164                  0.9979519       -29.95213
1.168                   1.000858       -30.83239
1.172                   1.003392       -31.78223
1.176                   1.005098       -32.78726
1.18                    1.005658       -33.82391
1.184                   1.004946       -34.86326
1.188                   1.003056        -35.8757
1.192                   1.000287       -36.83577
1.196                  0.9971017       -37.72661
1.2                    0.9940485       -38.54327
1.204                  0.9916685       -39.29435
1.208                  0.9903981       -40.00108
1.212                  0.9904845       -40.69394
1.216                  0.9919359       -41.40716
1.22                    0.994514       -42.17222
1.224                  0.9977749       -43.01196
1.228                   1.001147       -43.93637
1.232                   1.004033       -44.94108
1.236                   1.005909        -46.0083
1.24                     1.00642       -47.10985
1.244                   1.005439       -48.21175
1.248                   1.003093       -49.27955
1.252                  0.9997476       -50.28386
1.256                  0.9959567       -51.20559
1.26                   0.9923708       -52.03975
1.264                  0.9896263       -52.79742
1.268                  0.9882301       -53.50468
1.272                  0.9884606       -54.19839
1.276                  0.9903085       -54.91958
1.28                   0.9934719       -55.70551
1.284                  0.9974067       -56.58263
1.288                   1.001422       -57.56181
1.292                   1.004804       -58.63665
1.296                   1.006933        -59.7849
1.3                     1.007396       -60.97229
1.304                   1.006053       -62.15784
1.308                   1.003071       -63.30019
1.312                  0.9989026       -64.36413
1.316                  0.9942272       -65.32681
1.32                   0.9898408       -66.18255
1.324                  0.9865212       -66.94545
1.328                  0.9848862       -67.64817
1.332                  0.9852694       -68.33687
1.336                  0.9876472        -69.0627
1.34                   0.9916325        -69.8719
1.344                  0.9965392        -70.7968
1.348                   1.001503        -71.8501
1.352                   1.005633       -73.02305
1.356                   1.008161       -74.28738
1.36                    1.008574       -75.60011
1.364                     1.0067       -76.90999
1.368                   1.002749        -78.1651
1.372                  0.9972957        -79.3207
1.376                  0.9912025        -80.3472
1.38                   0.9854909       -81.23667
1.384                  0.9811687       -82.00673
1.388                  0.9790446       -82.69986
1.392                  0.9795613       -83.37692
1.396                  0.9826927       -84.10603
1.4                    0.9879315       -84.94888
1.404                   0.994372       -85.94865
1.408                   1.000869       -87.12235
1.412                   1.006235       -88.45866
1.416                   1.009442       -89.92073
1.42                    1.009784       -91.45225
1.424                   1.007004       -92.98556
1.428                    1.00135       -94.45073
1.432                  0.9935676       -95.78574
1.436                  0.9848147       -96.94692
1.44                   0.9765037        -97.9193
1.444                  0.9700718       -98.72389
1.448                  0.9667137       -99.41911
1.452                  0.9671275       -100.0932
1.456                  0.9713395       -100.8481
1.46                   0.9786623       -101.7784
1.464                  0.9878012       -102.9523
1.468                  0.9970783       -104.3996
1.472                   1.004716        -106.109
1.476                    1.00912       -108.0321
1.48                    1.009128       -110.0917
1.484                   1.004188        -112.192
1.488                  0.9944753       -114.2289
1.492                   0.980932       -116.1029
1.496                  0.9652085       -117.7335
1.5                    0.9494952       -119.0787
1.504                  0.9362173        -120.154
1.508                  0.9275988       -121.0465
1.512                  0.9251633       -121.9133
1.516                  0.9293005       -122.9576
1.52                    0.939052       -124.3878
1.524                  0.9521967       -126.3751
1.528                  0.9655866       -129.0288
1.532                  0.9756039        -132.392
1.536                  0.9786011       -136.4549
1.54                   0.9712483       -141.1734
1.544                  0.9507741       -146.4867
1.548                  0.9151107         -152.33
1.552                  0.8629718       -158.6445
1.556                  0.7938775        -165.384
1.56                   0.7081459       -172.5242
1.564                   0.606855        179.9204
1.568                  0.4917916        171.8525
1.572                  0.3654102        162.9454
1.576                  0.2309566        151.9644
1.58                  0.09464774        130.1455
1.584                 0.06845033       0.4159571
1.588                  0.2024068       -30.18708
1.592                  0.3381347         -42.058
1.596                  0.4667067        -51.2369
1.6                    0.5846196       -59.44268
1.604                  0.6892667       -67.09666
1.608                   0.778708       -74.32583
1.612                  0.8516988       -81.15704
1.616                  0.9077427       -87.57254
1.62                   0.9471324       -93.53038
1.624                   0.970967       -98.97418
1.628                  0.9811336       -103.8403
1.632                   0.980244       -108.0663
1.636                   0.971506       -111.6032
1.64                   0.9585086       -114.4316
1.644                  0.9449005       -116.5803
1.648                  0.9339711       -118.1415
1.652                   0.928191       -119.2717
1.656                  0.9288374        -120.172
1.66                   0.9358412        -121.049
1.664                   0.947932       -122.0729
1.668                  0.9630275       -123.3481
1.672                  0.9787266       -124.9069
1.676                   0.992767       -126.7202
1.68                     1.00336       -128.7161
1.684                   1.009394       -130.7993
1.688                   1.010511       -132.8666
1.692                   1.007089       -134.8204
1.696                    1.00015       -136.5791
1.7                    0.9911862       -138.0873
1.704                  0.9819334       -139.3248
1.708                  0.9740958       -140.3112
1.712                   0.969061       -141.1054
1.716                  0.9676619       -141.7958
1.72                   0.9700415       -142.4827
1.724                  0.9756586       -143.2576
1.728                  0.9834354       -144.1858
1.732                  0.9919935        -145.297
1.736                  0.9999196       -146.5845
1.74                    1.006002       -148.0113
1.744                   1.009406         -149.52
1.748                   1.009772        -151.043
1.752                    1.00724       -152.5127
1.756                   1.002406        -153.871
1.76                   0.9962176       -155.0769
1.764                  0.9898109       -156.1134
1.768                  0.9843274       -156.9909
1.772                   0.980715       -157.7462
1.776                   0.979563       -158.4358
1.78                   0.9810042       -159.1255
1.784                  0.9847055       -159.8768
1.788                  0.9899529       -160.7356
1.792                  0.9957998       -161.7246
1.796                   1.001248       -162.8415
1.8                      1.00542       -164.0619
1.804                   1.007692       -165.3454
1.808                   1.007783       -166.6429
1.812                    1.00578       -167.9043
1.816                   1.002111        -169.086
1.82                   0.9974695       -170.1576
1.824                   0.992693       -171.1068
1.828                   0.988623       -171.9413
1.832                   0.985958       -172.6884
1.836                  0.9851309       -173.3899
1.84                   0.9862373       -174.0939
1.844                  0.9890274        -174.846
1.848                   0.992965       -175.6799
1.852                  0.9973371        -176.613
1.856                   1.001387       -177.6435
1.86                    1.004446       -178.7532
1.864                    1.00604       -179.9106
1.868                   1.005957        178.9222
1.872                   1.004274        177.7841
1.876                   1.001333        176.7088
1.88                   0.9976781        175.7193
1.884                  0.9939636        174.8242
1.888                  0.9908395        174.0165
1.892                  0.9888383        173.2741
1.896                  0.9882821        172.5641
1.9                    0.9892286        171.8494
1.904                  0.9914688        171.0948
1.908                  0.9945728        170.2748
1.912                  0.9979769        169.3765
1.916                   1.001087        168.4018
1.92                    1.003381        167.3661
1.924                   1.004498        166.2945
1.928                   1.004285        165.2175
1.932                   1.002821         164.166
1.936                   1.000394        163.1663
1.94                   0.9974473        162.2356
1.944                  0.9945061        161.3798
1.948                  0.9920812        160.5917
1.952                  0.9905813        159.8529
1.956                  0.9902424        159.1367
1.96                   0.9910889        158.4136
1.964                  0.9929348        157.6565
1.968                  0.9954252        156.8456
1.972                  0.9981044        155.9721
1.976                   1.000501        155.0385
1.98                     1.00221        154.0578
1.984                   1.002958        153.0509
1.988                   1.002645        152.0426
1.992                   1.001355        151.0572
1.996                  0.9993357         150.115
2                      0.9969544        149.2288
2.004                  0.9946311        148.4017
2.008                  0.9927649        147.6266
2.012                  0.9916645        146.8878
2.016                  0.9914943        146.1637
2.02                   0.9922495        145.4308
2.024                  0.9937619        144.6685
2.028                  0.9957365        143.8622
2.032                  0.9978071         143.006
2.036                  0.9996058        142.1033
2.04                    1.000825        141.1653
2.044                    1.00127        140.2092
2.048                   1.000883        139.2546
2.052                  0.9997549        138.3204
2.056                  0.9980977        137.4217
2.06                   0.9962098        136.5672
2.064                   0.994419        135.7577
2.068                  0.9930261        134.9864
2.072                  0.9922501          134.24
2.076                  0.9921944        133.5014
2.08                   0.9928299        132.7528
2.084                  0.9940069        131.9791
2.088                  0.9954855        131.1704
2.092                  0.9969841        130.3235
2.096                  0.9982293        129.4422
2.1                    0.9990046        128.5361
2.104                  0.9991845        127.6187
2.108                  0.9987524        126.7048
2.112                  0.9977976         125.808
2.116                  0.9964965        124.9383
2.12                   0.9950763        124.1006
2.124                   0.993775        123.2941
2.128                  0.9927969        122.5123
2.132                  0.9922783        121.7448
2.136                   0.992266         120.979
2.14                   0.9927133        120.2026
2.144                  0.9934943         119.406
2.148                  0.9944302        118.5835
2.152                  0.9953257        117.7346
2.156                  0.9960052        116.8631
2.16                   0.9963421        115.9764
2.164                  0.9962794        115.0841
2.168                  0.9958338        114.1957
2.172                  0.9950879         113.319
2.176                  0.9941706        112.4591
2.18                     0.99323        111.6173
2.184                  0.9924042        110.7911
2.188                   0.991796        109.9753
2.192                  0.9914572        109.1627
2.196                  0.9913816        108.3459
2.2                    0.9915128        107.5188
2.204                  0.9917599        106.6775
2.208                   0.992019        105.8208
2.212                  0.9921955        104.9501
2.216                  0.9922235        104.0691
2.22                   0.9920755        103.1821
2.224                  0.9917645        102.2936
2.228                  0.9913358        101.4065
2.232                  0.9908525        100.5221
2.236                  0.9903771         99.6396
2.24                   0.9899551        98.75646
2.244                   0.989603        97.86918
2.248                  0.9893039        96.97427
2.252                  0.9890139        96.06928
2.256                  0.9886735        95.15342
2.26                   0.9882259        94.22784
2.264                  0.9876347        93.29542
2.268                  0.9868973         92.3599
2.272                  0.9860512        91.42485
2.276                  0.9851693        90.49239
2.28                    0.984346        89.56233
2.284                  0.9836756        88.63143
2.288                  0.9832272        87.69368
2.292                  0.9830225        86.74109
2.296                  0.9830213        85.76503
2.3                    0.9831195        84.75804
2.304                  0.9831622        83.71556
2.308                   0.982968        82.63711
2.312                   0.982365        81.52684
2.316                   0.981226        80.39308
2.32                   0.9795011        79.24706
2.324                  0.9772382        78.10071
2.328                  0.9745851        76.96418
2.332                  0.9717735        75.84311
2.336                  0.9690809        74.73648
2.34                   0.9667795        73.63543
2.344                  0.9650784        72.52339
2.348                  0.9640687        71.37805
2.352                   0.963688         70.1745