! TOUCHSTONE file generated by CST MICROWAVE STUDIO
! Date and time: Tue Jun 14 12:12:49 2022
! Project name: AppElm_antenne_patch_FR4.cst
! Parameters = {L=45; W=58.5; e=0.035; h=1.6; lambda=0.190476; ls=120; w0=2.794; w1=0.847; ws=120; y0=18; y1=23.8}
! Header version: 2018
! Port assignment regex: !\s*Touchstone port\s*([0-9]+)\s*=\s*(CST MWS port|CST DS port)\s*([0-9]+|Zmin|Zmax)\s*\(\"(.*)\"\)(\s*mode\s*([0-9]+))?.*
! Touchstone port assignment:
! Touchstone port 1 = CST MWS port 1 ("")
# GHz S MA R 50
0                      0.9866342              -0
0.004                  0.9874125        -9.98192
0.008                  0.9896421       -19.86995
0.012                  0.9930227       -29.57516
0.016                  0.9971054       -39.01764
0.02                    1.001358       -48.12913
0.024                   1.005241       -56.85412
0.028                   1.008279       -65.14965
0.032                   1.010122       -72.98449
0.036                   1.010584        -80.3381
0.04                    1.009666       -87.19989
0.044                   1.007546        -93.5689
0.048                   1.004557       -99.45392
0.052                   1.001136       -104.8738
0.056                  0.9977666       -109.8573
0.06                   0.9949107       -114.4429
0.064                  0.9929411       -118.6765
0.068                  0.9920908        -122.609
0.072                  0.9924221       -126.2919
0.076                  0.9938216       -129.7736
0.08                   0.9960263       -133.0954
0.084                  0.9986676       -136.2885
0.088                   1.001333       -139.3731
0.092                   1.003628       -142.3586
0.096                   1.005233       -145.2452
0.1                     1.005946       -148.0263
0.104                   1.005706       -150.6919
0.108                   1.004597       -153.2314
0.112                   1.002828        -155.637
0.116                   1.000701       -157.9058
0.12                   0.9985614       -160.0415
0.124                  0.9967449        -162.055
0.128                  0.9955251       -163.9637
0.132                  0.9950721       -165.7893
0.136                  0.9954288       -167.5555
0.14                    0.996507       -169.2848
0.144                  0.9981072       -170.9952
0.148                  0.9999537       -172.6986
0.152                   1.001743       -174.3995
0.156                    1.00319       -176.0954
0.16                    1.004077       -177.7777
0.164                    1.00428       -179.4341
0.168                   1.003788        178.9493
0.172                   1.002702        177.3852
0.176                   1.001214        175.8831
0.18                   0.9995775        174.4472
0.184                  0.9980628        173.0759
0.188                  0.9969156        171.7615
0.192                  0.9963155        170.4913
0.196                  0.9963478        169.2496
0.2                    0.9969913        168.0203
0.204                  0.9981237        166.7891
0.208                  0.9995452        165.5462
0.212                   1.001013        164.2869
0.216                   1.002282        163.0128
0.22                    1.003146        161.7305
0.224                   1.003471        160.4507
0.228                   1.003213        159.1861
0.232                   1.002426        157.9492
0.236                   1.001248          156.75
0.24                   0.9998829        155.5949
0.244                  0.9985611        154.4846
0.248                  0.9975038         153.415
0.252                  0.9968846        152.3768
0.256                  0.9968016        151.3576
0.26                   0.9972599        150.3439
0.264                  0.9981736        149.3233
0.268                  0.9993809        148.2865
0.272                   1.000673        147.2289
0.276                   1.001829        146.1509
0.28                    1.002657        145.0581
0.284                    1.00302          143.96
0.288                   1.002863         142.868
0.292                   1.002217        141.7939
0.296                   1.001197        140.7477
0.3                    0.9999786        139.7361
0.304                   0.998771        138.7611
0.308                  0.9977799        137.8196
0.312                  0.9971731         136.904
0.316                  0.9970513        136.0035
0.32                   0.9974316        135.1058
0.324                   0.998244        134.1993
0.328                  0.9993455        133.2753
0.332                   1.000544        132.3289
0.336                   1.001635        131.3604
0.34                    1.002431        130.3747
0.344                   1.002799        129.3804
0.348                   1.002679        128.3884
0.352                   1.002094        127.4101
0.356                   1.001146        126.4554
0.36                           1        125.5309
0.364                  0.9988545        124.6389
0.368                  0.9979065         123.777
0.372                  0.9973196        122.9381
0.376                  0.9971945        122.1121
0.38                   0.9975514        121.2873
0.384                  0.9983264        120.4526
0.388                  0.9993835        119.5994
0.392                   1.000538         118.723
0.396                   1.001591        117.8236
0.4                     1.002361        116.9058
0.404                   1.002715        115.9781
0.408                   1.002593        115.0512
0.412                   1.002018        114.1362
0.416                    1.00109         113.243
0.42                    0.999969        112.3781
0.424                  0.9988503        111.5438
0.428                  0.9979284        110.7376
0.432                  0.9973644        109.9529
0.436                  0.9972567        109.1794
0.44                   0.9976237        108.4058
0.444                  0.9984013        107.6209
0.448                   0.999453        106.8164
0.452                   1.000595        105.9879
0.456                   1.001628        105.1356
0.46                    1.002372        104.2643
0.464                   1.002697        103.3826
0.468                   1.002548        102.5013
0.472                   1.001948        101.6317
0.476                   1.001002        100.7833
0.48                   0.9998727        99.96267
0.484                  0.9987575        99.17195
0.488                  0.9978513        98.40845
0.492                  0.9973136        97.66508
0.496                  0.9972393        96.93157
0.5                    0.9976423        96.19628
0.504                  0.9984522        95.44824
0.508                  0.9995269        94.67916
0.512                   1.000678        93.88487
0.516                   1.001702        93.06593
0.52                    1.002422        92.22767
0.524                   1.002708        91.37903
0.528                    1.00251        90.53113
0.532                    1.00186        89.69536
0.536                   1.000869        88.88137
0.54                   0.9997096        88.09548
0.544                  0.9985837        87.33944
0.548                  0.9976894        86.61013
0.552                  0.9971851        85.89991
0.556                  0.9971614        85.19804
0.56                   0.9976239        84.49254
0.564                  0.9984921        83.77233
0.568                  0.9996138        83.02924
0.572                   1.000792        82.25945
0.576                   1.001818        81.46411
0.58                    1.002511        80.64916
0.584                   1.002748        79.82418
0.588                   1.002485        79.00082
0.592                   1.001764        78.19069
0.596                   1.000709        77.40357
0.6                    0.9995027        76.64547
0.604                  0.9983574        75.91767
0.608                  0.9974753        75.21632
0.612                  0.9970141        74.53304
0.616                  0.9970578        73.85642
0.62                   0.9976012        73.17394
0.624                  0.9985502        72.47435
0.628                  0.9997384        71.74964
0.632                   1.000956        70.99649
0.636                   1.001989        70.21679
0.64                    1.002652        69.41727
0.644                   1.002828        68.60838
0.648                   1.002481        67.80237
0.652                   1.001669        67.01132
0.656                    1.00053        66.24503
0.66                   0.9992626         65.5092
0.664                  0.9980905        64.80443
0.668                  0.9972217        64.12598
0.672                  0.9968125        63.46451
0.676                  0.9969391         62.8077
0.68                   0.9975821        62.14243
0.684                  0.9986304        61.45723
0.688                  0.9998998        60.74428
0.692                   1.001166        60.00087
0.696                   1.002205        59.22981
0.7                      1.00283        58.43886
0.704                   1.002929        57.63948
0.708                   1.002478        56.84475
0.712                   1.001552        56.06721
0.716                    1.00031        55.31667
0.72                   0.9989685        54.59844
0.724                   0.997763         53.9123
0.728                  0.9969093        53.25242
0.732                  0.9965622        52.60827
0.736                  0.9967875        51.96644
0.74                   0.9975489        51.31313
0.744                  0.9987143        50.63659
0.748                   1.000078        49.92929
0.752                   1.001399        49.18928
0.756                   1.002443        48.42043
0.76                     1.00302        47.63179
0.764                   1.003025        46.83596
0.768                    1.00245          46.047
0.772                    1.00139        45.27795
0.776                   1.000026        44.53865
0.78                   0.9985971        43.83391
0.784                  0.9973547        43.16249
0.788                  0.9965217        42.51725
0.792                  0.9962501        41.88626
0.796                  0.9965933         41.2549
0.8                    0.9974945        40.60851
0.804                  0.9987969        39.93509
0.808                   1.000271         39.2275
0.812                   1.001654        38.48465
0.816                     1.0027        37.71175
0.82                     1.00322        36.91927
0.824                   1.003114        36.12122
0.828                   1.002394        35.33269
0.832                   1.001178        34.56735
0.836                  0.9996763        33.83501
0.84                   0.9981496        33.13982
0.844                  0.9968689         32.4794
0.848                  0.9960646        31.84504
0.852                  0.9958854        31.22318
0.856                  0.9963692        30.59776
0.86                   0.9974351        29.95322
0.864                  0.9988975         29.2773
0.868                   1.000498         28.5633
0.872                   1.001953        27.81124
0.876                      1.003        27.02781
0.88                    1.003451         26.2252
0.884                   1.003215        25.41899
0.888                   1.002327        24.62549
0.892                   1.000933        23.85903
0.896                  0.9992723        23.12936
0.9                    0.9976358        22.43988
0.904                  0.9963148         21.7868
0.908                  0.9955483        21.15961
0.912                    0.99548        20.54284
0.916                  0.9961295        19.91882
0.92                   0.9973875        19.27094
0.924                  0.9990351        18.58667
0.928                   1.000781        17.85989
0.932                   1.002315        17.09189
0.936                   1.003362        16.29114
0.94                    1.003729        15.47176
0.944                   1.003341        14.65116
0.948                   1.002255        13.84707
0.952                   1.000653        13.07452
0.956                  0.9988083        12.34323
0.96                   0.9970454        11.65568
0.964                  0.9956787        11.00644
0.968                  0.9949574        10.38288
0.972                   0.995019        9.767332
0.976                  0.9958616        9.140239
0.98                   0.9973429        8.483777
0.984                  0.9992045        7.785151
0.988                   1.001118        7.038908
0.992                   1.002742        6.247858
0.996                   1.003783        5.422519
1                        1.00405         4.57929
1.004                    1.00348        3.737684
1.008                   1.002161        2.917064
1.012                   1.000311        2.133355
1.016                  0.9982491        1.396189
1.02                   0.9963357       0.7069916
1.024                  0.9949137      0.05840633
1.028                  0.9942443      -0.5646725
1.032                  0.9944574       -1.182532
1.036                  0.9955263       -1.816959
1.04                   0.9972694       -2.487191
1.044                  0.9993824       -3.206356
1.048                   1.001492       -3.979112
1.052                   1.003221       -4.800891
1.056                   1.004257       -5.658758
1.06                    1.004403       -6.533647
1.064                   1.003617       -7.403533
1.068                   1.002019       -8.247091
1.072                   0.999873       -9.047341
1.076                  0.9975483       -9.794617
1.08                   0.9954517       -10.48878
1.084                  0.9939602       -11.13943
1.088                  0.9933493       -11.76466
1.092                  0.9937418       -12.38788
1.096                  0.9950811        -13.0336
1.1                    0.9971393       -13.72277
1.104                   0.999557       -14.46903
1.108                   1.001906       -15.27606
1.112                   1.003767       -16.13729
1.116                     1.0048       -17.03686
1.12                    1.004806       -17.95254
1.124                   1.003761       -18.85923
1.128                   1.001825       -19.73314
1.132                  0.9993177        -20.5559
1.136                  0.9966683       -21.31782
1.14                   0.9943418       -22.02007
1.144                  0.9927575       -22.67499
1.148                  0.9922118        -23.3043
1.152                  0.9928197       -23.93533
1.156                    0.99449       -24.59601
1.16                   0.9969386       -25.30954
1.164                  0.9997383       -26.09019
1.168                   1.002394       -26.94068
1.172                   1.004429       -27.85192
1.176                   1.005471       -28.80463
1.18                    1.005311       -29.77257
1.184                   1.003949       -30.72681
1.188                   1.001591       -31.64041
1.192                  0.9986246       -32.49301
1.196                  0.9955557       -33.27463
1.2                    0.9929236       -33.98796
1.204                   0.991205       -34.64867
1.208                  0.9907254       -35.28306
1.212                  0.9915945        -35.9235
1.216                  0.9936795       -36.60241
1.22                   0.9966269        -37.3461
1.224                  0.9999227       -38.16988
1.228                   1.002984       -39.07541
1.232                    1.00526       -40.05061
1.236                   1.006329       -41.07183
1.24                    1.005969       -42.10776
1.244                     1.0042        -43.1244
1.248                   1.001289       -44.09046
1.252                  0.9977071        -44.9827
1.256                  0.9940625       -45.79033
1.26                   0.9909948       -46.51772
1.264                   0.989062       -47.18469
1.268                   0.988636       -47.82358
1.272                   0.989825       -48.47364
1.276                  0.9924475       -49.17359
1.28                   0.9960586       -49.95425
1.284                   1.000029       -50.83276
1.288                   1.003655        -51.8097
1.292                   1.006281       -52.86928
1.296                    1.00741       -53.98216
1.3                     1.006794       -55.11018
1.304                   1.004474       -56.21228
1.308                   1.000789       -57.25084
1.312                   0.996324       -58.19804
1.316                   0.991829       -59.04126
1.32                   0.9880893       -59.78659
1.324                   0.985788       -60.45926
1.328                  0.9853736       -61.10004
1.332                  0.9869658       -61.75828
1.336                  0.9903219        -62.4823
1.34                   0.9948739       -63.31007
1.344                  0.9998266       -64.26212
1.348                   1.004297       -65.33814
1.352                   1.007468       -66.51758
1.356                   1.008724       -67.76324
1.36                    1.007756       -69.02719
1.364                   1.004622       -70.25771
1.368                  0.9997532       -71.40719
1.372                  0.9938974       -72.43986
1.376                  0.9880161         -73.339
1.38                   0.9831267       -74.11197
1.384                  0.9801221       -74.79137
1.388                   0.979595       -75.43103
1.392                  0.9817077       -76.09662
1.396                  0.9861428       -76.85286
1.4                    0.9921488       -77.75058
1.404                  0.9986701       -78.81729
1.408                    1.00453       -80.05282
1.412                   1.008632       -81.43032
1.416                   1.010138        -82.9011
1.42                     1.00861       -84.40191
1.424                    1.00409       -85.86364
1.428                   0.997126       -87.22084
1.432                  0.9887111       -88.42214
1.436                  0.9801614        -89.4405
1.44                   0.9729134       -90.28202
1.444                  0.9682721       -90.98989
1.448                  0.9671476       -91.64078
1.452                  0.9698457       -92.33201
1.456                  0.9759679       -93.16218
1.46                   0.9844597       -94.21099
1.464                  0.9937886       -95.52417
1.468                   1.002206       -97.10697
1.472                   1.008034        -98.9259
1.476                   1.009924       -100.9155
1.48                    1.007065       -102.9875
1.484                  0.9993244       -105.0413
1.488                  0.9873199       -106.9753
1.492                  0.9724027       -108.7005
1.496                  0.9565401       -110.1572
1.5                    0.9420731       -111.3352
1.504                  0.9313362       -112.2897
1.508                  0.9261831       -113.1484
1.512                  0.9275141       -114.0964
1.516                  0.9349596       -115.3426
1.52                   0.9468347       -117.0762
1.524                  0.9603766       -119.4335
1.528                  0.9721581       -122.4851
1.532                  0.9785404       -126.2429
1.536                  0.9760596       -130.6769
1.54                   0.9617091       -135.7331
1.544                  0.9331225       -141.3493
1.548                  0.8886767       -147.4651
1.552                  0.8275389       -154.0308
1.556                  0.7496721       -161.0149
1.56                   0.6558109        -168.418
1.564                  0.5474171       -176.3032
1.568                  0.4266368        175.1138
1.572                  0.2963341        165.1201
1.576                  0.1608044        150.3846
1.58                  0.04532946        84.89074
1.584                   0.136733       -10.41724
1.588                  0.2723722       -27.27165
1.592                  0.4040282       -37.70635
1.596                  0.5267897       -46.46912
1.6                    0.6376396        -54.4644
1.604                  0.7343146       -61.95715
1.608                  0.8152298       -69.02841
1.612                  0.8795171       -75.68708
1.616                  0.9270698       -81.90671
1.62                     0.95857       -87.64068
1.624                  0.9754889       -92.83064
1.628                  0.9800477       -97.41446
1.632                  0.9751274       -101.3362
1.636                   0.964103         -104.56
1.64                   0.9505858       -107.0878
1.644                  0.9380591       -108.9769
1.648                  0.9294395       -110.3494
1.652                  0.9266499       -111.3841
1.656                  0.9303397       -112.2871
1.66                   0.9398681       -113.2507
1.664                  0.9535672       -114.4155
1.668                  0.9691878       -115.8521
1.672                  0.9843783       -117.5638
1.676                  0.9970839       -119.5011
1.68                    1.005816       -121.5809
1.684                   1.009793       -123.7046
1.688                   1.008976       -125.7714
1.692                   1.004015       -127.6907
1.696                  0.9961285       -129.3917
1.7                    0.9869118       -130.8328
1.704                  0.9780927       -132.0095
1.708                  0.9712577       -132.9569
1.712                   0.967583       -133.7457
1.716                  0.9676376       -134.4697
1.72                   0.9713014       -135.2266
1.724                  0.9778253       -136.0985
1.728                  0.9860138       -137.1374
1.732                  0.9944717       -138.3594
1.736                   1.001857       -139.7464
1.74                    1.007091       -141.2543
1.744                   1.009506       -142.8219
1.748                   1.008913       -144.3821
1.752                   1.005601       -145.8704
1.756                   1.000278       -147.2343
1.76                   0.9939485       -148.4404
1.764                  0.9877491       -149.4801
1.768                  0.9827611       -150.3715
1.772                   0.979826       -151.1569
1.776                  0.9794008       -151.8958
1.78                    0.981487       -152.6526
1.784                  0.9856478       -153.4844
1.788                   0.991109       -154.4305
1.792                  0.9969151       -155.5072
1.796                   1.002104       -156.7063
1.8                     1.005867       -157.9997
1.804                   1.007667       -159.3453
1.808                   1.007306       -160.6942
1.812                   1.004946       -161.9981
1.816                   1.001066       -163.2168
1.82                   0.9963782       -164.3237
1.824                  0.9917131       -165.3103
1.828                  0.9878755       -166.1877
1.832                  0.9855093       -166.9855
1.836                  0.9849861       -167.7459
1.84                   0.9863462        -168.516
1.844                   0.989301       -169.3387
1.848                  0.9932987       -170.2453
1.852                   0.997633       -171.2499
1.856                   1.001573       -172.3491
1.86                    1.004484       -173.5233
1.864                   1.005929       -174.7412
1.868                   1.005727       -175.9656
1.872                   1.003974       -177.1589
1.876                   1.001017       -178.2891
1.88                   0.9973926       -179.3346
1.884                  0.9937363        179.7124
1.888                  0.9906748        178.8443
1.892                  0.9887182        178.0395
1.896                  0.9881739        177.2663
1.9                    0.9890964        176.4886
1.904                  0.9912852        175.6726
1.908                  0.9943288        174.7933
1.912                  0.9976862        173.8382
1.916                   1.000784        172.8084
1.92                    1.003117        171.7181
1.924                   1.004322        170.5911
1.928                   1.004238        169.4565
1.932                   1.002922        168.3441
1.936                   1.000631        167.2797
1.94                   0.9977771        166.2811
1.944                  0.9948568        165.3553
1.948                  0.9923663        164.4973
1.952                  0.9907162        163.6909
1.956                  0.9901631        162.9117
1.96                   0.9907677        162.1316
1.964                  0.9923905         161.324
1.968                  0.9947228        160.4683
1.972                  0.9973466        159.5537
1.976                  0.9998106        158.5798
1.98                    1.001707        157.5569
1.984                   1.002739        156.5028
1.988                   1.002761        155.4403
1.992                     1.0018        154.3931
1.996                   1.000044         153.382
2                       0.997806        152.4217
2.004                  0.9954716        151.5184
2.008                  0.9934312        150.6693
2.012                  0.9920148        149.8624
2.016                  0.9914377        149.0794
2.02                   0.9917659        148.2987
2.024                  0.9929091        147.4992
2.028                  0.9946436        146.6645
2.032                  0.9966546        145.7847
2.036                  0.9985936        144.8585
2.04                    1.000138        143.8926
2.044                   1.001043        142.9001
2.048                   1.001178         141.898
2.052                   1.000543        140.9045
2.056                  0.9992625        139.9362
2.06                   0.9975616        139.0052
2.064                  0.9957269        138.1173
2.068                  0.9940561        137.2715
2.072                  0.9928093        136.4601
2.076                  0.9921676          135.67
2.08                   0.9922045        134.8856
2.084                  0.9928784        134.0907
2.088                  0.9940451        133.2722
2.092                  0.9954864        132.4215
2.096                   0.996949        131.5359
2.1                     0.998188        130.6185
2.104                   0.999006        129.6777
2.108                  0.9992807         128.725
2.112                  0.9989807        127.7736
2.116                  0.9981657        126.8359
2.12                   0.9969723        125.9216
2.124                  0.9955892        125.0368
2.128                  0.9942254        124.1827
2.132                  0.9930763        123.3558
2.136                  0.9922949        122.5486
2.14                   0.9919692        121.7511
2.144                  0.9921133        120.9521
2.148                  0.9926683        120.1416
2.152                  0.9935165        119.3117
2.156                  0.9945024        118.4578
2.16                   0.9954585        117.5792
2.164                  0.9962296        116.6788
2.168                  0.9966944        115.7622
2.172                  0.9967801        114.8372
2.176                  0.9964684         113.912
2.18                   0.9957953        112.9946
2.184                  0.9948426        112.0915
2.188                  0.9937255        111.2069
2.192                  0.9925754        110.3424
2.196                  0.9915237        109.4969
2.2                    0.9906853        108.6666
2.204                  0.9901451        107.8457
2.208                  0.9899481        107.0271
2.212                  0.9900949         106.203
2.216                  0.9905417        105.3663
2.22                   0.9912047         104.511
2.224                  0.9919697         103.633
2.228                  0.9927044        102.7307
2.232                  0.9932732        101.8054
2.236                   0.993554        100.8609
2.24                   0.9934536        99.90321
2.244                  0.9929221        98.94033
2.248                  0.9919625        97.98089
2.252                  0.9906356         97.0333
2.256                  0.9890572         96.1044
2.26                   0.9873878        95.19841
2.264                  0.9858136        94.31573
2.268                  0.9845215        93.45254
2.272                  0.9836701        92.60071
2.276                   0.983361        91.74849
2.28                   0.9836159        90.88199
2.284                   0.984364        89.98707
2.288                  0.9854432        89.05166
2.292                  0.9866174        88.06773
2.296                  0.9876061        87.03298
2.3                    0.9881267        85.95149
2.304                  0.9879383        84.83354
2.308                  0.9868852        83.69448
2.312                  0.9849298        82.55261
2.316                  0.9821709        81.42647
2.32                   0.9788415        80.33165
2.324                   0.975284        79.27766
2.328                  0.9719034        78.26523
2.332                  0.9691038        77.28475
2.336                  0.9672141        76.31625
2.34                   0.9664204        75.33156
2.344                  0.9667144        74.29812
2.348                  0.9678733        73.18425
2.352                  0.9694767        71.96436