! TOUCHSTONE file generated by CST MICROWAVE STUDIO
! Date and time: Tue Jun 14 12:12:46 2022
! Project name: AppElm_antenne_patch_FR4.cst
! Parameters = {L=45; W=58.5; e=0.035; h=1.6; lambda=0.190476; ls=120; w0=2.413; w1=0.847; ws=120; y0=18; y1=23.8}
! Header version: 2018
! Port assignment regex: !\s*Touchstone port\s*([0-9]+)\s*=\s*(CST MWS port|CST DS port)\s*([0-9]+|Zmin|Zmax)\s*\(\"(.*)\"\)(\s*mode\s*([0-9]+))?.*
! Touchstone port assignment:
! Touchstone port 1 = CST MWS port 1 ("")
# GHz S MA R 50
0                       0.987856              -0
0.004                  0.9885793       -9.973926
0.008                  0.9906494       -19.85543
0.012                  0.9937822       -29.55684
0.016                  0.9975534       -38.99919
0.02                    1.001462       -48.11481
0.024                   1.005001       -56.84848
0.028                   1.007729       -65.15734
0.032                   1.009325       -73.01025
0.036                   1.009629       -80.38688
0.04                    1.008654       -87.27703
0.044                   1.006587       -93.68034
0.048                   1.003755       -99.60643
0.052                   1.000577        -105.075
0.056                  0.9975096       -110.1155
0.06                   0.9949777       -114.7666
0.064                  0.9933142       -119.0738
0.068                  0.9927131       -123.0866
0.072                   0.993204       -126.8548
0.076                  0.9946536       -130.4241
0.08                   0.9967931       -133.8332
0.084                  0.9992647       -137.1106
0.088                   1.001681       -140.2746
0.092                   1.003682        -143.333
0.096                    1.00499       -146.2856
0.1                     1.005446       -149.1261
0.104                   1.005025       -151.8457
0.108                   1.003835       -154.4357
0.112                   1.002098       -156.8907
0.116                   1.000112         -159.21
0.12                   0.9982003       -161.3997
0.124                  0.9966641       -163.4723
0.128                   0.995734       -165.4458
0.132                  0.9955348        -167.342
0.136                  0.9960693        -169.183
0.14                   0.9972219       -170.9892
0.144                  0.9987819        -172.776
0.148                   1.000481       -174.5528
0.152                   1.002039       -176.3218
0.156                    1.00321        -178.079
0.16                    1.003819       -179.8155
0.164                   1.003786        178.4806
0.168                   1.003139        176.8218
0.172                   1.002002        175.2187
0.176                   1.000578        173.6782
0.18                   0.9991074        172.2021
0.184                  0.9978363        170.7865
0.188                  0.9969694        169.4223
0.192                  0.9966399        168.0964
0.196                  0.9968885         166.794
0.2                    0.9976575        165.5007
0.204                  0.9988045        164.2046
0.208                   1.000127        162.8986
0.212                     1.0014        161.5807
0.216                   1.002411         160.254
0.22                    1.002997        158.9263
0.224                    1.00307        157.6083
0.228                   1.002627        156.3114
0.232                   1.001754        155.0461
0.236                   1.000604        153.8201
0.24                   0.9993748         152.637
0.244                  0.9982759        151.4953
0.248                  0.9974904         150.389
0.252                   0.997146        149.3083
0.256                  0.9972935        148.2413
0.26                   0.9978991         147.176
0.264                  0.9988517        146.1023
0.268                   0.999983        145.0136
0.272                   1.001097         143.908
0.276                   1.002005        142.7881
0.28                    1.002555        141.6605
0.284                   1.002658        140.5347
0.288                   1.002303        139.4213
0.292                   1.001555        138.3302
0.296                   1.000546        137.2691
0.3                    0.9994498        136.2417
0.304                  0.9984557        135.2477
0.308                   0.997733         134.282
0.312                  0.9974032        133.3365
0.316                  0.9975192        132.4005
0.32                    0.998057        131.4633
0.324                  0.9989193        130.5157
0.328                  0.9999542        129.5514
0.332                   1.000983        128.5686
0.336                   1.001827        127.5694
0.34                    1.002344        126.5602
0.344                   1.002448        125.5497
0.348                   1.002123         124.548
0.352                   1.001429        123.5646
0.356                   1.000486        122.6068
0.36                   0.9994584        121.6786
0.364                  0.9985249        120.7798
0.368                  0.9978463        119.9058
0.372                  0.9975398        119.0491
0.376                  0.9976571        118.1995
0.38                   0.9981762         117.347
0.384                  0.9990047        116.4827
0.388                  0.9999974        115.6009
0.392                   1.000982        114.6995
0.396                   1.001786        113.7809
0.4                     1.002274        112.8512
0.404                    1.00236         111.919
0.408                   1.002031        110.9941
0.412                   1.001345        110.0859
0.416                   1.000422        109.2015
0.42                   0.9994214        108.3446
0.424                  0.9985187        107.5151
0.428                  0.9978712        106.7085
0.432                  0.9975921        105.9172
0.436                  0.9977304        105.1314
0.44                   0.9982614        104.3411
0.444                  0.9990919        103.5377
0.448                   1.000076        102.7156
0.452                   1.001042        101.8732
0.456                   1.001821        101.0129
0.46                    1.002278         100.141
0.464                   1.002332        99.26629
0.468                   1.001973         98.3985
0.472                   1.001264        97.54697
0.476                   1.000327        96.71871
0.48                   0.9993246        95.91734
0.484                  0.9984332        95.14236
0.488                  0.9978092        94.38911
0.492                  0.9975626        93.64966
0.496                  0.9977376        92.91411
0.5                    0.9983043        92.17237
0.504                  0.9991631        91.41596
0.508                   1.000163        90.63952
0.512                   1.001129        89.84172
0.516                   1.001891        89.02546
0.52                    1.002314        88.19731
0.524                   1.002323        87.36645
0.528                   1.001915        86.54293
0.532                   1.001158         85.7361
0.536                   1.000183        84.95289
0.54                    0.999161        84.19665
0.544                  0.9982703        83.46644
0.548                  0.9976687        82.75712
0.552                  0.9974635        82.06028
0.556                  0.9976926        81.36559
0.56                   0.9983172        80.66277
0.564                  0.9992277        79.94333
0.568                   1.000264        79.20217
0.572                   1.001244        78.43842
0.576                   1.001995        77.65552
0.58                    1.002381         76.8607
0.584                   1.002334        76.06365
0.588                   1.001859        75.27484
0.592                   1.001035         74.5038
0.596                   1.000006        73.75736
0.6                    0.9989507         73.0385
0.604                  0.9980555        72.34567
0.608                  0.9974799        71.67308
0.612                   0.997328        71.01155
0.616                  0.9976292        70.35021
0.62                   0.9983327         69.6784
0.624                  0.9993156        68.98768
0.628                   1.000405        68.27317
0.632                   1.001409        67.53461
0.636                   1.002149        66.77623
0.64                    1.002492        66.00604
0.644                   1.002375        65.23448
0.648                   1.001815        64.47254
0.652                   1.000906        63.72996
0.656                  0.9998054        63.01351
0.66                   0.9987063        62.32562
0.664                  0.9978034        61.66408
0.668                  0.9972588         61.0221
0.672                   0.997172        60.38964
0.676                  0.9975622        59.75508
0.68                   0.9983631        59.10734
0.684                  0.9994353        58.43791
0.688                    1.00059        57.74237
0.692                   1.001622        57.02113
0.696                   1.002348         56.2794
0.7                     1.002636         55.5262
0.704                   1.002432        54.77284
0.708                   1.001766        54.03098
0.712                    1.00075        53.31063
0.716                  0.9995622        52.61834
0.72                   0.9984092        51.95601
0.724                  0.9974966        51.32044
0.728                   0.996989        50.70377
0.732                  0.9969808        50.09481
0.736                  0.9974775        49.48107
0.74                   0.9983946        48.85097
0.744                  0.9995715        48.19602
0.748                     1.0008        47.51229
0.752                   1.001863        46.80108
0.756                   1.002569        46.06875
0.76                    1.002788        45.32553
0.764                   1.002477        44.58378
0.768                   1.001683        43.85591
0.772                   1.000542         43.1522
0.776                  0.9992498        42.47897
0.78                   0.9980351        41.83737
0.784                  0.9971141        41.22307
0.788                   0.996654        40.62684
0.792                  0.9967412        40.03621
0.796                  0.9973654        39.43765
0.8                    0.9984197        38.81906
0.804                   0.999719        38.17197
0.808                   1.001033        37.49308
0.812                   1.002128         36.7848
0.816                   1.002806        36.05484
0.82                    1.002942        35.31484
0.824                   1.002503        34.57841
0.828                    1.00156        33.85877
0.832                   1.000272        33.16648
0.836                  0.9988631        32.50753
0.84                   0.9975814        31.88217
0.844                  0.9966566        31.28468
0.848                  0.9962577        30.70428
0.852                  0.9964621        30.12693
0.856                  0.9972391        29.53796
0.86                   0.9984553        28.92469
0.864                  0.9998972        28.27875
0.868                   1.001309        27.59762
0.872                   1.002438        26.88504
0.876                   1.003081        26.15031
0.88                    1.003115        25.40672
0.884                   1.002526        24.66927
0.888                   1.001408        23.95211
0.892                  0.9999525        23.26609
0.896                   0.998411        22.61678
0.9                    0.9970568        22.00331
0.904                  0.9961339        21.41834
0.908                   0.995813        20.84919
0.912                  0.9961588         20.2801
0.916                   0.997117        19.69505
0.92                   0.9985229        19.08072
0.924                   1.000129        18.42895
0.928                   1.001652        17.73819
0.932                   1.002816        17.01371
0.936                   1.003412        16.26673
0.94                    1.003324        15.51243
0.944                   1.002556         14.7674
0.948                   1.001233        14.04687
0.952                  0.9995814        13.36197
0.956                  0.9978873        12.71772
0.96                   0.9964518        12.11193
0.964                  0.9955354         11.5353
0.968                  0.9953094        10.97298
0.972                  0.9958236        10.40714
0.976                  0.9969951        9.820243
0.98                   0.9986219        9.198286
0.984                   1.000418        8.533383
0.988                   1.002064        7.825141
0.992                   1.003265        7.080701
0.996                     1.0038         6.31348
1                       1.003562        5.540881
1.004                   1.002579         4.78138
1.008                   1.001013        4.051392
1.012                  0.9991279        3.362391
1.016                  0.9972536        2.718736
1.02                   0.9957233        2.116624
1.024                  0.9948158        1.544475
1.028                  0.9947033       0.9848167
1.032                  0.9954173       0.4173898
1.036                  0.9968408      -0.1771197
1.04                   0.9987277      -0.8134912
1.044                   1.000746       -1.499268
1.048                   1.002536       -2.233438
1.052                   1.003775       -3.006661
1.056                   1.004233       -3.802902
1.06                    1.003813       -4.602129
1.064                   1.002572        -5.38365
1.068                   1.000711       -6.129599
1.072                  0.9985458       -6.828095
1.076                  0.9964543       -7.475558
1.08                   0.9948095       -8.077699
1.084                  0.9939125       -8.648867
1.088                  0.9939364       -9.209652
1.092                  0.9948911       -9.783307
1.096                  0.9966188       -10.39128
1.1                    0.9988202       -11.04921
1.104                   1.001108       -11.76442
1.108                   1.003073       -12.53404
1.112                    1.00436       -13.34621
1.116                   1.004726        -14.1817
1.12                    1.004086       -15.01731
1.124                    1.00253       -15.82966
1.128                   1.000309         -16.599
1.132                  0.9977997       -17.31294
1.136                  0.9954394       -17.96875
1.14                   0.9936501       -18.57443
1.144                  0.9927627        -19.1477
1.148                  0.9929521       -19.71307
1.152                   0.994203        -20.2974
1.156                  0.9963076       -20.92489
1.16                   0.9989017       -21.61253
1.164                   1.001528       -22.36701
1.168                   1.003719       -23.18365
1.172                   1.005074        -24.0473
1.176                   1.005334        -24.9349
1.18                    1.004425       -25.81927
1.184                   1.002476       -26.67354
1.188                  0.9998013       -27.47558
1.192                  0.9968516       -28.21208
1.196                   0.994141       -28.88123
1.2                    0.9921559        -29.4938
1.204                  0.9912669       -30.07173
1.208                  0.9916556       -30.64453
1.212                  0.9932768       -31.24385
1.216                  0.9958615       -31.89749
1.22                   0.9989629       -32.62426
1.224                   1.002035       -33.43047
1.228                   1.004529       -34.30908
1.232                   1.005986       -35.24093
1.236                   1.006122       -36.19807
1.24                    1.004872       -37.14812
1.244                   1.002412       -38.05959
1.248                  0.9991333        -38.9069
1.252                  0.9955858       -39.67522
1.256                  0.9923854        -40.3636
1.26                   0.9901084       -40.98615
1.264                  0.9891836       -41.57035
1.268                  0.9898084       -42.15238
1.272                  0.9919035       -42.77054
1.276                  0.9951222       -43.45782
1.28                   0.9989083       -44.23579
1.284                   1.002595       -45.11067
1.288                    1.00552       -46.07253
1.292                   1.007141       -47.09711
1.296                   1.007127       -48.14989
1.3                      1.00542       -49.19145
1.304                   1.002253       -50.18358
1.308                  0.9981166        -51.0955
1.312                  0.9936957       -51.90954
1.316                  0.9897528       -52.62528
1.32                   0.9869976       -53.26102
1.324                  0.9859545       -53.85173
1.328                  0.9868548        -54.4433
1.332                  0.9895831       -55.08392
1.336                  0.9936887       -55.81473
1.34                   0.9984618       -56.66203
1.344                   1.003059       -57.63262
1.348                   1.006648       -58.71308
1.352                   1.008549       -59.87227
1.356                   1.008352       -61.06646
1.36                    1.005988       -62.24579
1.364                   1.001754       -63.36168
1.368                   0.996283       -64.37457
1.372                  0.9904548       -65.26124
1.376                  0.9852605       -66.02056
1.38                   0.9816316       -66.67604
1.384                  0.9802624       -67.27386
1.388                  0.9814654       -67.87526
1.392                  0.9850921       -68.54508
1.396                  0.9905454       -69.33885
1.4                    0.9968795       -70.29203
1.404                   1.002965       -71.41405
1.408                   1.007681       -72.68744
1.412                   1.010104       -74.07138
1.416                   1.009653       -75.50805
1.42                    1.006204       -76.93082
1.424                    1.00012       -78.27324
1.428                  0.9922339       -79.47904
1.432                   0.983742       -80.51239
1.436                  0.9760368       -81.36729
1.44                   0.9704721       -82.07328
1.444                   0.968104       -82.69491
1.448                  0.9694592       -83.32222
1.452                  0.9743956       -84.05377
1.456                  0.9820943       -84.97635
1.46                    0.991193       -86.14798
1.464                   1.000018       -87.58842
1.468                   1.006864       -89.27804
1.472                   1.010259       -91.16293
1.476                   1.009192       -93.16333
1.48                    1.003278       -95.18338
1.484                  0.9928534       -97.12191
1.488                  0.9789912       -98.88491
1.492                  0.9634299        -100.401
1.496                  0.9483785       -101.6399
1.5                    0.9361936        -102.631
1.504                  0.9289387        -103.474
1.508                  0.9279036        -104.333
1.512                  0.9332185       -105.4099
1.516                  0.9437001       -106.9034
1.52                   0.9569845       -108.9704
1.524                  0.9698818       -111.7057
1.528                  0.9788215       -115.1416
1.532                  0.9802647       -119.2619
1.536                  0.9710243       -124.0201
1.54                    0.948482       -129.3553
1.544                  0.9107194        -135.204
1.548                  0.8565848       -141.5093
1.552                  0.7857128       -148.2267
1.556                  0.6985113       -155.3334
1.56                   0.5961222       -162.8452
1.564                   0.480368       -170.8615
1.568                   0.353711       -179.7175
1.572                  0.2193803        169.2806
1.576                 0.08385022        145.9004
1.58                  0.07568582        12.00208
1.584                  0.2105691        -13.9489
1.588                  0.3452266       -25.21883
1.592                  0.4724524       -34.16782
1.596                  0.5889501       -42.24279
1.6                    0.6922185        -49.8067
1.604                  0.7803954       -56.96765
1.608                  0.8522935       -63.74504
1.612                  0.9074542       -70.11799
1.616                  0.9461872        -76.0434
1.62                   0.9695862        -81.4647
1.624                   0.979512       -86.31856
1.628                  0.9785304       -90.54305
1.632                  0.9697891        -94.0892
1.636                  0.9568113       -96.93688
1.64                   0.9431858       -99.11305
1.644                  0.9321632       -100.7064
1.648                  0.9262078       -101.8696
1.652                  0.9266278       -102.7998
1.656                  0.9334146       -103.7022
1.66                   0.9453691       -104.7476
1.664                  0.9604699       -106.0436
1.668                  0.9763522       -107.6264
1.672                  0.9907558       -109.4713
1.676                   1.001862       -111.5099
1.68                    1.008497       -113.6495
1.684                   1.010222       -115.7883
1.688                   1.007322       -117.8285
1.692                   1.000727       -119.6864
1.696                  0.9918551       -121.3027
1.7                    0.9824043       -122.6509
1.704                    0.97409       -123.7433
1.708                   0.968367       -124.6314
1.712                  0.9661852       -125.3986
1.716                  0.9678329       -126.1438
1.72                   0.9729122       -126.9618
1.724                  0.9804546       -127.9246
1.728                  0.9891365       -129.0707
1.732                  0.9975361       -130.4017
1.736                   1.004375       -131.8881
1.74                    1.008705       -133.4771
1.744                   1.010023       -135.1035
1.748                   1.008317       -136.6989
1.752                   1.004043       -138.2012
1.756                   0.998041        -139.563
1.76                   0.9913998       -140.7583
1.764                   0.985281       -141.7869
1.768                   0.980729        -142.676
1.772                   0.978492       -143.4754
1.776                  0.9788966        -144.249
1.78                   0.9818011       -145.0619
1.784                  0.9866397       -145.9683
1.788                  0.9925462       -147.0017
1.792                  0.9985191       -148.1716
1.796                   1.003599       -149.4632
1.8                     1.007017       -150.8431
1.804                   1.008308       -152.2654
1.808                   1.007362       -153.6791
1.812                   1.004427        -155.036
1.816                   1.000062       -156.2971
1.82                   0.9950428       -157.4387
1.824                  0.9902358       -158.4561
1.828                  0.9864542       -159.3649
1.832                  0.9843203       -160.1989
1.836                  0.9841602       -161.0036
1.84                   0.9859527       -161.8281
1.844                   0.989344        -162.716
1.848                  0.9937219       -163.6969
1.852                  0.9983343       -164.7831
1.856                   1.002422        -165.968
1.86                    1.005342       -167.2291
1.864                   1.006665       -168.5326
1.868                   1.006233       -169.8388
1.872                   1.004174       -171.1087
1.876                   1.000875       -172.3091
1.88                   0.9969161       -173.4181
1.884                  0.9929738       -174.4284
1.888                  0.9897107       -175.3488
1.892                  0.9876633       -176.2028
1.896                  0.9871515       -177.0248
1.9                    0.9882267       -177.8535
1.904                  0.9906694        -178.725
1.908                  0.9940363       -179.6661
1.912                  0.9977443        179.3095
1.916                   1.001174        178.2032
1.92                    1.003775        177.0299
1.924                   1.005148        175.8149
1.928                   1.005105        174.5899
1.932                    1.00369        173.3872
1.936                   1.001168        172.2357
1.94                   0.9979787         171.156
1.944                  0.9946619         170.157
1.948                   0.991771         169.235
1.952                  0.9897787        168.3737
1.956                   0.988999        167.5468
1.96                   0.9895357        166.7234
1.964                   0.991268        165.8726
1.968                  0.9938784        164.9701
1.972                  0.9969121        164.0011
1.976                  0.9998586        162.9631
1.98                    1.002238        161.8652
1.984                   1.003675        160.7262
1.988                   1.003959        159.5711
1.992                   1.003067        158.4273
1.996                   1.001168          157.32
2                       0.998588        156.2689
2.004                  0.9957586        155.2845
2.008                  0.9931456        154.3672
2.012                  0.9911724        153.5062
2.016                  0.9901498        152.6822
2.02                   0.9902248        151.8701
2.024                  0.9913593        151.0436
2.028                  0.9933407        150.1801
2.032                  0.9958218         149.264
2.036                  0.9983828        148.2894
2.04                    1.000602        147.2605
2.044                   1.002125        146.1901
2.048                   1.002717        145.0978
2.052                   1.002295        144.0065
2.056                    1.00094        142.9385
2.06                   0.9988789        141.9128
2.064                  0.9964491        140.9417
2.068                  0.9940411        140.0292
2.072                  0.9920372        139.1699
2.076                  0.9907497        138.3503
2.08                   0.9903695        137.5508
2.084                  0.9909363        136.7488
2.088                  0.9923349        135.9232
2.092                  0.9943179        135.0574
2.096                  0.9965483         134.142
2.1                    0.9986565        133.1763
2.104                     1.0003        132.1676
2.108                   1.001216        131.1302
2.112                   1.001261        130.0826
2.116                   1.000425         129.045
2.12                   0.9988387        128.0359
2.124                  0.9967472        127.0698
2.128                  0.9944716        126.1545
2.132                  0.9923604        125.2902
2.136                  0.9907344        124.4692
2.14                   0.9898352        123.6771
2.144                   0.989787        122.8951
2.148                  0.9905782        122.1029
2.152                   0.992063        121.2825
2.156                  0.9939876        120.4205
2.16                   0.9960307        119.5106
2.164                  0.9978547        118.5541
2.168                  0.9991581        117.5596
2.172                  0.9997196        116.5414
2.176                  0.9994312        115.5174
2.18                   0.9983135        114.5066
2.184                  0.9965125         113.526
2.188                  0.9942796        112.5887
2.192                  0.9919341        111.7008
2.196                  0.9898167        110.8616
2.2                    0.9882366        110.0622
2.204                  0.9874232        109.2874
2.208                  0.9874877        108.5179
2.212                  0.9884041        107.7328
2.216                  0.9900115        106.9136
2.22                   0.9920369        106.0468
2.224                  0.9941371        105.1259
2.228                  0.9959506        104.1527
2.232                  0.9971524        103.1367
2.236                  0.9975017        102.0937
2.24                   0.9968811        101.0436
2.244                  0.9953158        100.0079
2.248                  0.9929747        99.00591
2.252                  0.9901509        98.05262
2.256                  0.9872223        97.15554
2.26                   0.9845975        96.31322
2.264                  0.9826528        95.51482
2.268                  0.9816695        94.74104
2.272                  0.9817838        93.96694
2.276                  0.9829567        93.16569
2.28                   0.9849727        92.31297
2.284                  0.9874676        91.39099
2.288                  0.9899812        90.39147
2.292                  0.9920255        89.31703
2.296                  0.9931599        88.18078
2.3                    0.9930604        87.00473
2.304                  0.9915729        85.81668
2.308                  0.9887462        84.64638
2.312                  0.9848368        83.52127
2.316                  0.9802831          82.462
2.32                   0.9756504        81.47824
2.324                  0.9715487        80.56575
2.328                  0.9685342        79.70531
2.332                  0.9670086        78.86423
2.336                  0.9671362        78.00066
2.34                   0.9687953        77.07025
2.344                  0.9715793        76.03354
2.348                  0.9748457        74.86268
2.352                  0.9778085        73.54596