! TOUCHSTONE file generated by CST MICROWAVE STUDIO
! Date and time: Thu May 12 19:46:01 2022
! Project name: AppElm_antenne_dipole_Alumina.cst
! Parameters = {L=19.94; e=0.035; f=2.45e+09; h=1.6; i=0.8; l1=15.31; lambda=122.449; ls=30; wl=1.7; ws=80}
! Header version: 2018
! Port assignment regex: !\s*Touchstone port\s*([0-9]+)\s*=\s*(CST MWS port|CST DS port)\s*([0-9]+|Zmin|Zmax)\s*\(\"(.*)\"\)(\s*mode\s*([0-9]+))?.*
! Touchstone port assignment:
! Touchstone port 1 = CST MWS port 1 ("")
# GHz S MA R 50
0                      0.9998803              -0
0.004                  0.9998765      -0.1584976
0.008                  0.9998655      -0.3169756
0.012                   0.999847      -0.4754143
0.016                  0.9998214      -0.6337945
0.02                   0.9997885      -0.7920967
0.024                  0.9997485      -0.9503022
0.028                  0.9997016       -1.108392
0.032                  0.9996478       -1.266349
0.036                  0.9995874       -1.424155
0.04                   0.9995204       -1.581792
0.044                  0.9994473       -1.739245
0.048                  0.9993681       -1.896498
0.052                  0.9992832       -2.053535
0.056                  0.9991927       -2.210343
0.06                    0.999097       -2.366909
0.064                  0.9989964       -2.523219
0.068                  0.9988913       -2.679262
0.072                  0.9987819       -2.835029
0.076                  0.9986684        -2.99051
0.08                   0.9985514       -3.145697
0.084                  0.9984313       -3.300583
0.088                  0.9983084       -3.455162
0.092                   0.998183       -3.609429
0.096                  0.9980555       -3.763382
0.1                    0.9979265       -3.917018
0.104                  0.9977963       -4.070337
0.108                  0.9976652       -4.223339
0.112                  0.9975339       -4.376026
0.116                  0.9974024       -4.528402
0.12                   0.9972715       -4.680473
0.124                  0.9971414       -4.832242
0.128                  0.9970126       -4.983719
0.132                  0.9968856       -5.134911
0.136                  0.9967606       -5.285831
0.14                   0.9966382       -5.436487
0.144                  0.9965186       -5.586894
0.148                  0.9964024       -5.737065
0.152                  0.9962898       -5.887017
0.156                  0.9961812       -6.036765
0.16                   0.9960771       -6.186327
0.164                  0.9959776       -6.335723
0.168                  0.9958831       -6.484972
0.172                   0.995794       -6.634096
0.176                  0.9957105       -6.783115
0.18                    0.995633       -6.932055
0.184                  0.9955617       -7.080938
0.188                  0.9954967       -7.229789
0.192                  0.9954384       -7.378635
0.196                  0.9953867       -7.527503
0.2                    0.9953422       -7.676416
0.204                  0.9953049       -7.825405
0.208                  0.9952747       -7.974496
0.212                  0.9952518       -8.123721
0.216                  0.9952365       -8.273102
0.22                   0.9952287       -8.422674
0.224                  0.9952283       -8.572466
0.228                  0.9952355       -8.722505
0.232                  0.9952505        -8.87282
0.236                  0.9952728       -9.023444
0.24                   0.9953025       -9.174402
0.244                  0.9953395       -9.325727
0.248                  0.9953837       -9.477445
0.252                  0.9954353       -9.629584
0.256                  0.9954936       -9.782175
0.26                   0.9955587       -9.935244
0.264                  0.9956306       -10.08881
0.268                  0.9957085       -10.24292
0.272                  0.9957928       -10.39758
0.276                  0.9958828       -10.55282
0.28                   0.9959784       -10.70867
0.284                  0.9960794       -10.86514
0.288                  0.9961851       -11.02227
0.292                  0.9962955       -11.18007
0.296                  0.9964103       -11.33855
0.3                    0.9965289       -11.49775
0.304                   0.996651       -11.65768
0.308                  0.9967764       -11.81834
0.312                  0.9969044       -11.97977
0.316                  0.9970349       -12.14198
0.32                   0.9971671       -12.30497
0.324                  0.9973009       -12.46875
0.328                  0.9974358       -12.63335
0.332                  0.9975713       -12.79876
0.336                   0.997707         -12.965
0.34                   0.9978426       -13.13206
0.344                  0.9979773       -13.29996
0.348                   0.998111        -13.4687
0.352                  0.9982432       -13.63828
0.356                  0.9983733        -13.8087
0.36                   0.9985012       -13.97995
0.364                  0.9986261       -14.15205
0.368                  0.9987479       -14.32498
0.372                   0.998866       -14.49873
0.376                    0.99898       -14.67332
0.38                   0.9990898       -14.84872
0.384                  0.9991946       -15.02493
0.388                  0.9992947       -15.20193
0.392                   0.999389       -15.37973
0.396                  0.9994777       -15.55831
0.4                    0.9995603       -15.73765
0.404                  0.9996364       -15.91774
0.408                  0.9997059       -16.09857
0.412                  0.9997685       -16.28013
0.416                  0.9998241       -16.46239
0.42                   0.9998724       -16.64534
0.424                   0.999913       -16.82898
0.428                  0.9999461       -17.01326
0.432                  0.9999717        -17.1982
0.436                   0.999989       -17.38375
0.44                   0.9999986        -17.5699
0.444                          1       -17.75665
0.448                  0.9999933       -17.94396
0.452                  0.9999786       -18.13182
0.456                  0.9999557        -18.3202
0.46                   0.9999247       -18.50911
0.464                  0.9998858        -18.6985
0.468                  0.9998389       -18.88836
0.472                  0.9997844       -19.07869
0.476                  0.9997221       -19.26945
0.48                   0.9996524       -19.46064
0.484                  0.9995753       -19.65223
0.488                  0.9994911       -19.84421
0.492                     0.9994       -20.03657
0.496                  0.9993023        -20.2293
0.5                    0.9991982       -20.42236
0.504                  0.9990881       -20.61577
0.508                  0.9989722        -20.8095
0.512                  0.9988509       -21.00354
0.516                  0.9987245       -21.19789
0.52                   0.9985934       -21.39254
0.524                   0.998458       -21.58748
0.528                  0.9983188        -21.7827
0.532                  0.9981759        -21.9782
0.536                  0.9980301       -22.17398
0.54                   0.9978816       -22.37003
0.544                  0.9977307       -22.56637
0.548                  0.9975783       -22.76298
0.552                  0.9974244       -22.95988
0.556                  0.9972699       -23.15706
0.56                    0.997115       -23.35453
0.564                  0.9969602       -23.55231
0.568                  0.9968059        -23.7504
0.572                  0.9966527       -23.94881
0.576                  0.9965012       -24.14755
0.58                   0.9963516       -24.34665
0.584                  0.9962044       -24.54611
0.588                  0.9960603       -24.74595
0.592                  0.9959195        -24.9462
0.596                  0.9957825       -25.14687
0.6                    0.9956498       -25.34799
0.604                   0.995522       -25.54957
0.608                  0.9953991       -25.75166
0.612                  0.9952818       -25.95427
0.616                  0.9951703       -26.15742
0.62                    0.995065       -26.36117
0.624                  0.9949663       -26.56552
0.628                  0.9948745       -26.77052
0.632                    0.99479        -26.9762
0.636                  0.9947129       -27.18259
0.64                   0.9946435       -27.38973
0.644                  0.9945822       -27.59766
0.648                   0.994529       -27.80642
0.652                  0.9944842       -28.01603
0.656                  0.9944479       -28.22655
0.66                   0.9944203       -28.43802
0.664                  0.9944015       -28.65046
0.668                  0.9943917       -28.86393
0.672                  0.9943906       -29.07847
0.676                  0.9943985       -29.29411
0.68                   0.9944153       -29.51091
0.684                   0.994441        -29.7289
0.688                  0.9944755       -29.94813
0.692                  0.9945189       -30.16863
0.696                  0.9945707       -30.39047
0.7                    0.9946311       -30.61366
0.704                  0.9946998       -30.83825
0.708                  0.9947766       -31.06429
0.712                  0.9948612       -31.29182
0.716                  0.9949535       -31.52088
0.72                   0.9950531       -31.75151
0.724                  0.9951598       -31.98375
0.728                  0.9952732       -32.21763
0.732                  0.9953927        -32.4532
0.736                  0.9955183       -32.69049
0.74                   0.9956496       -32.92954
0.744                  0.9957859       -33.17038
0.748                  0.9959271       -33.41304
0.752                  0.9960725       -33.65756
0.756                  0.9962218       -33.90397
0.76                   0.9963742        -34.1523
0.764                  0.9965297       -34.40258
0.768                  0.9966874       -34.65483
0.772                  0.9968469       -34.90908
0.776                  0.9970076       -35.16536
0.78                   0.9971691       -35.42368
0.784                  0.9973309       -35.68408
0.788                  0.9974922       -35.94656
0.792                  0.9976528       -36.21116
0.796                  0.9978119       -36.47788
0.8                    0.9979688       -36.74674
0.804                  0.9981234       -37.01775
0.808                   0.998275       -37.29093
0.812                  0.9984228        -37.5663
0.816                  0.9985667       -37.84385
0.82                   0.9987057       -38.12361
0.824                  0.9988397       -38.40556
0.828                  0.9989678       -38.68974
0.832                  0.9990899       -38.97612
0.836                  0.9992055       -39.26473
0.84                    0.999314       -39.55555
0.844                  0.9994148        -39.8486
0.848                  0.9995078       -40.14388
0.852                  0.9995924       -40.44138
0.856                  0.9996683        -40.7411
0.86                   0.9997353       -41.04304
0.864                  0.9997928       -41.34719
0.868                  0.9998407       -41.65354
0.872                  0.9998787       -41.96213
0.876                  0.9999064       -42.27287
0.88                   0.9999234       -42.58583
0.884                  0.9999302         -42.901
0.888                   0.999926       -43.21831
0.892                   0.999911       -43.53785
0.896                  0.9998847       -43.85953
0.9                    0.9998474       -44.18336
0.904                   0.999799       -44.50932
0.908                  0.9997393        -44.8375
0.912                  0.9996685       -45.16778
0.916                  0.9995867       -45.50022
0.92                   0.9994938       -45.83476
0.924                    0.99939       -46.17144
0.928                  0.9992754       -46.51024
0.932                  0.9991502       -46.85121
0.936                  0.9990147       -47.19424
0.94                    0.998869       -47.53939
0.944                  0.9987134       -47.88669
0.948                  0.9985482       -48.23609
0.952                  0.9983739        -48.5876
0.956                  0.9981905       -48.94124
0.96                   0.9979987       -49.29701
0.964                  0.9977986       -49.65494
0.968                   0.997591         -50.015
0.972                   0.997376       -50.37722
0.976                  0.9971543        -50.7416
0.98                   0.9969262       -51.10816
0.984                  0.9966925       -51.47693
0.988                  0.9964535       -51.84789
0.992                  0.9962098        -52.2211
0.996                   0.995962       -52.59659
1                      0.9957107       -52.97433
1.004                  0.9954565       -53.35439
1.008                  0.9951998       -53.73677
1.012                  0.9949414       -54.12158
1.016                   0.994682       -54.50874
1.02                   0.9944219       -54.89837
1.024                  0.9941621       -55.29047
1.028                   0.993903       -55.68509
1.032                  0.9936452       -56.08228
1.036                  0.9933895       -56.48204
1.04                   0.9931365       -56.88453
1.044                  0.9928866        -57.2897
1.048                  0.9926406       -57.69762
1.052                  0.9923989       -58.10839
1.056                  0.9921624       -58.52206
1.06                   0.9919313       -58.93864
1.064                  0.9917065       -59.35826
1.068                  0.9914883       -59.78094
1.072                  0.9912773       -60.20679
1.076                   0.991074       -60.63583
1.08                   0.9908787       -61.06821
1.084                   0.990692        -61.5039
1.088                  0.9905144       -61.94308
1.092                  0.9903463       -62.38576
1.096                  0.9901878        -62.8321
1.1                    0.9900394       -63.28207
1.104                  0.9899015       -63.73586
1.108                  0.9897742       -64.19352
1.112                  0.9896579       -64.65513
1.116                  0.9895526       -65.12078
1.12                   0.9894586       -65.59056
1.124                  0.9893759       -66.06463
1.128                  0.9893047       -66.54299
1.132                  0.9892452       -67.02578
1.136                  0.9891971       -67.51309
1.14                   0.9891606       -68.00503
1.144                  0.9891357       -68.50167
1.148                   0.989122       -69.00314
1.152                  0.9891196       -69.50953
1.156                  0.9891282       -70.02095
1.16                   0.9891476       -70.53748
1.164                  0.9891777       -71.05919
1.168                   0.989218       -71.58625
1.172                  0.9892682       -72.11872
1.176                   0.989328       -72.65669
1.18                   0.9893969       -73.20029
1.184                  0.9894747       -73.74959
1.188                  0.9895606       -74.30469
1.192                  0.9896543       -74.86571
1.196                  0.9897552       -75.43273
1.2                    0.9898627       -76.00582
1.204                  0.9899764       -76.58512
1.208                  0.9900953       -77.17068
1.212                  0.9902191       -77.76261
1.216                  0.9903469       -78.36099
1.22                   0.9904782       -78.96593
1.224                   0.990612       -79.57749
1.228                  0.9907478       -80.19577
1.232                  0.9908848       -80.82085
1.236                  0.9910222       -81.45277
1.24                   0.9911592       -82.09167
1.244                   0.991295       -82.73759
1.248                  0.9914287       -83.39061
1.252                  0.9915598       -84.05079
1.256                  0.9916873       -84.71821
1.26                   0.9918103       -85.39295
1.264                  0.9919281       -86.07504
1.268                  0.9920399       -86.76457
1.272                  0.9921447       -87.46159
1.276                  0.9922419       -88.16617
1.28                   0.9923306       -88.87834
1.284                    0.99241       -89.59813
1.288                  0.9924795       -90.32565
1.292                  0.9925382       -91.06091
1.296                  0.9925854       -91.80397
1.3                    0.9926204       -92.55484
1.304                  0.9926423       -93.31358
1.308                  0.9926507       -94.08021
1.312                  0.9926449        -94.8548
1.316                  0.9926241       -95.63733
1.32                    0.992588       -96.42784
1.324                  0.9925357       -97.22639
1.328                  0.9924669       -98.03295
1.332                  0.9923809       -98.84756
1.336                  0.9922774       -99.67023
1.34                    0.992156        -100.501
1.344                  0.9920163       -101.3398
1.348                  0.9918578       -102.1868
1.352                  0.9916803       -103.0418
1.356                  0.9914836       -103.9049
1.36                   0.9912672       -104.7762
1.364                  0.9910313       -105.6555
1.368                  0.9907755       -106.5428
1.372                  0.9904998       -107.4383
1.376                  0.9902041       -108.3418
1.38                   0.9898884       -109.2534
1.384                  0.9895529       -110.1729
1.388                  0.9891975       -111.1005
1.392                  0.9888222        -112.036
1.396                  0.9884276       -112.9795
1.4                    0.9880136       -113.9308
1.404                  0.9875807       -114.8901
1.408                   0.987129       -115.8572
1.412                  0.9866591        -116.832
1.416                  0.9861712       -117.8146
1.42                   0.9856657       -118.8049
1.424                  0.9851434       -119.8028
1.428                  0.9846046       -120.8083
1.432                  0.9840499       -121.8214
1.436                  0.9834803       -122.8419
1.44                   0.9828957       -123.8698
1.444                  0.9822975        -124.905
1.448                  0.9816861       -125.9475
1.452                  0.9810625       -126.9971
1.456                  0.9804272       -128.0539
1.46                   0.9797813       -129.1177
1.464                  0.9791256       -130.1884
1.468                  0.9784609        -131.266
1.472                  0.9777881       -132.3503
1.476                  0.9771083       -133.4412
1.48                   0.9764225       -134.5387
1.484                  0.9757315       -135.6426
1.488                  0.9750366       -136.7529
1.492                  0.9743383       -137.8693
1.496                  0.9736382       -138.9919
1.5                    0.9729369       -140.1205
1.504                   0.972236       -141.2549
1.508                   0.971536        -142.395
1.512                  0.9708382       -143.5407
1.516                  0.9701436       -144.6919
1.52                   0.9694533       -145.8484
1.524                  0.9687682         -147.01
1.528                  0.9680898       -148.1767
1.532                  0.9674186       -149.3482
1.536                   0.966756       -150.5245
1.54                   0.9661029       -151.7053
1.544                  0.9654602       -152.8906
1.548                  0.9648287         -154.08
1.552                  0.9642099       -155.2735
1.556                  0.9636043       -156.4709
1.56                   0.9630129        -157.672
1.564                  0.9624366       -158.8767
1.568                   0.961876       -160.0847
1.572                  0.9613323       -161.2958
1.576                   0.960806         -162.51
1.58                   0.9602977       -163.7269
1.584                  0.9598085       -164.9464
1.588                  0.9593387       -166.1684
1.592                  0.9588889       -167.3925
1.596                  0.9584597       -168.6187
1.6                    0.9580516       -169.8466
1.604                  0.9576652       -171.0762
1.608                  0.9573008       -172.3071
1.612                  0.9569585       -173.5392
1.616                  0.9566389       -174.7724
1.62                   0.9563422       -176.0063
1.624                  0.9560686       -177.2407
1.628                  0.9558182       -178.4755
1.632                  0.9555911       -179.7105
1.636                  0.9553872        179.0546
1.64                   0.9552067          177.82
1.644                  0.9550493        176.5859
1.648                   0.954915        175.3524
1.652                  0.9548037        174.1199
1.656                   0.954715        172.8885
1.66                   0.9546486        171.6584
1.664                  0.9546044        170.4298
1.668                  0.9545817         169.203
1.672                  0.9545802        167.9781
1.676                  0.9545995        166.7554
1.68                   0.9546389         165.535
1.684                   0.954698        164.3171
1.688                   0.954776         163.102
1.692                  0.9548723        161.8898
1.696                  0.9549863        160.6808
1.7                    0.9551173        159.4751
1.704                  0.9552644        158.2728
1.708                  0.9554267        157.0743
1.712                  0.9556036        155.8796
1.716                   0.955794         154.689
1.72                   0.9559972        153.5026
1.724                  0.9562125        152.3206
1.728                  0.9564384        151.1432
1.732                  0.9566746        149.9705
1.736                  0.9569196        148.8027
1.74                   0.9571728        147.6399
1.744                  0.9574328        146.4823
1.748                  0.9576992        145.3301
1.752                  0.9579707        144.1834
1.756                  0.9582461        143.0424
1.76                   0.9585249        141.9071
1.764                  0.9588057        140.7778
1.768                  0.9590877        139.6545
1.772                  0.9593696        138.5374
1.776                  0.9596511        137.4266
1.78                   0.9599307        136.3222
1.784                  0.9602078        135.2244
1.788                  0.9604812        134.1332
1.792                  0.9607502        133.0488
1.796                  0.9610139        131.9713
1.8                    0.9612717        130.9007
1.804                  0.9615223        129.8372
1.808                  0.9617652        128.7809
1.812                  0.9619997        127.7318
1.816                   0.962225          126.69
1.82                   0.9624404        125.6557
1.824                  0.9626453        124.6289
1.828                  0.9628391        123.6097
1.832                  0.9630213        122.5981
1.836                  0.9631911        121.5942
1.84                   0.9633484        120.5981
1.844                  0.9634925        119.6098
1.848                  0.9636231        118.6294
1.852                  0.9637399         117.657
1.856                  0.9638424        116.6926
1.86                   0.9639307        115.7362
1.864                   0.964004        114.7878
1.868                  0.9640628        113.8477
1.872                  0.9641066        112.9156
1.876                  0.9641355        111.9918
1.88                   0.9641493        111.0761
1.884                  0.9641481        110.1687
1.888                   0.964132        109.2696
1.892                  0.9641012        108.3787
1.896                  0.9640557        107.4962
1.9                    0.9639958        106.6219
1.904                  0.9639218         105.756
1.908                  0.9638338        104.8984
1.912                  0.9637324        104.0491
1.916                  0.9636176        103.2081
1.92                   0.9634904        102.3754
1.924                  0.9633507        101.5511
1.928                  0.9631995         100.735
1.932                  0.9630369        99.92718
1.936                  0.9628636        99.12764
1.94                   0.9626802        98.33632
1.944                  0.9624875         97.5532
1.948                   0.962286        96.77827
1.952                  0.9620764        96.01146
1.956                  0.9618593        95.25278
1.96                   0.9616356        94.50215
1.964                  0.9614061        93.75956
1.968                  0.9611716        93.02495
1.972                  0.9609326        92.29825
1.976                  0.9606901        91.57946
1.98                   0.9604449        90.86846
1.984                   0.960198        90.16524
1.988                  0.9599498        89.46972
1.992                  0.9597014        88.78184
1.996                  0.9594536        88.10153
2                      0.9592074         87.4287
2.004                  0.9589635         86.7633
2.008                  0.9587225        86.10527
2.012                  0.9584856        85.45449
2.016                  0.9582534        84.81089
2.02                   0.9580266         84.1744
2.024                  0.9578063        83.54493
2.028                   0.957593        82.92238
2.032                  0.9573875        82.30666
2.036                  0.9571905        81.69768
2.04                   0.9570028        81.09534
2.044                  0.9568249        80.49954
2.048                  0.9566575        79.91018
2.052                  0.9565013        79.32716
2.056                  0.9563568        78.75037
2.06                   0.9562246        78.17972
2.064                   0.956105         77.6151
2.068                  0.9559987        77.05637
2.072                  0.9559061        76.50348
2.076                  0.9558276        75.95626
2.08                   0.9557632        75.41464
2.084                  0.9557137        74.87849
2.088                  0.9556791         74.3477
2.092                  0.9556597        73.82216
2.096                  0.9556557        73.30174
2.1                    0.9556671        72.78636
2.104                   0.955694         72.2759
2.108                  0.9557366        71.77023
2.112                  0.9557948        71.26924
2.116                  0.9558684        70.77284
2.12                   0.9559575        70.28091
2.124                  0.9560618        69.79334
2.128                  0.9561813        69.31001
2.132                  0.9563157        68.83083
2.136                  0.9564646         68.3557
2.14                   0.9566277         67.8845
2.144                  0.9568047        67.41713
2.148                  0.9569953         66.9535
2.152                  0.9571989        66.49351
2.156                   0.957415        66.03707
2.16                   0.9576432        65.58409
2.164                  0.9578829        65.13444
2.168                  0.9581335        64.68807
2.172                  0.9583944         64.2449
2.176                  0.9586651        63.80482
2.18                   0.9589446        63.36778
2.184                  0.9592323        62.93367
2.188                  0.9595277        62.50244
2.192                  0.9598298        62.07401
2.196                  0.9601381        61.64831
2.2                    0.9604514        61.22529
2.204                  0.9607694        60.80486
2.208                  0.9610909        60.38699
2.212                  0.9614154        59.97161
2.216                  0.9617418        59.55866
2.22                   0.9620694        59.14811
2.224                  0.9623974        58.73991
2.228                   0.962725          58.334
2.232                  0.9630511        57.93035
2.236                  0.9633752        57.52894
2.24                   0.9636964        57.12972
2.244                  0.9640137        56.73265
2.248                  0.9643264        56.33773
2.252                   0.964634        55.94491
2.256                  0.9649351         55.5542
2.26                   0.9652296        55.16554
2.264                  0.9655165        54.77894
2.268                   0.965795        54.39439
2.272                  0.9660645        54.01188
2.276                  0.9663244        53.63139
2.28                    0.966574        53.25291
2.284                  0.9668126        52.87645
2.288                  0.9670398        52.50201
2.292                   0.967255        52.12958
2.296                  0.9674576        51.75918
2.3                    0.9676471         51.3908
2.304                  0.9678233        51.02445
2.308                  0.9679856        50.66015
2.312                  0.9681337        50.29789
2.316                  0.9682672        49.93769
2.32                   0.9683861        49.57957
2.324                  0.9684896        49.22354
2.328                  0.9685781        48.86961
2.332                  0.9686513        48.51779
2.336                  0.9687087        48.16812
2.34                   0.9687505        47.82059
2.344                  0.9687767        47.47524
2.348                  0.9687873        47.13207
2.352                  0.9687823        46.79111