! TOUCHSTONE file generated by CST MICROWAVE STUDIO
! Date and time: Tue Jun  7 20:32:35 2022
! Project name: AppElm_antenne_patch_FR4.cst
! Parameters = {L=45; W=58.5; e=0.035; h=1.6; lambda=0.190476; ls=120; w0=1.6; w1=0.533333; ws=120; y0=24; y1=23.8095}
! Header version: 2018
! Port assignment regex: !\s*Touchstone port\s*([0-9]+)\s*=\s*(CST MWS port|CST DS port)\s*([0-9]+|Zmin|Zmax)\s*\(\"(.*)\"\)(\s*mode\s*([0-9]+))?.*
! Touchstone port assignment:
! Touchstone port 1 = CST MWS port 1 ("")
# GHz S MA R 50
0                      0.9912497              -0
0.004                  0.9918117       -9.955891
0.008                  0.9934157       -19.82478
0.012                  0.9958281        -29.5238
0.016                  0.9987017       -38.97777
0.02                    1.001629       -48.12155
0.024                   1.004206       -56.90141
0.028                   1.006086       -65.27534
0.032                   1.007034       -73.21264
0.036                   1.006951       -80.69359
0.04                    1.005891       -87.70895
0.044                   1.004042       -94.25973
0.048                   1.001705       -100.3571
0.052                  0.9992416       -106.0221
0.056                  0.9970215        -111.285
0.06                   0.9953661       -116.1834
0.064                  0.9945001       -120.7605
0.068                  0.9945176       -125.0614
0.072                  0.9953725       -129.1296
0.076                  0.9968896       -133.0037
0.08                    0.998798       -136.7149
0.084                   1.000779       -140.2852
0.088                   1.002517       -143.7275
0.092                    1.00375       -147.0466
0.096                   1.004307       -150.2413
0.1                     1.004133       -153.3069
0.104                   1.003289       -156.2377
0.108                   1.001944       -159.0302
0.112                   1.000338       -161.6845
0.116                  0.9987495       -164.2064
0.12                   0.9974407       -166.6072
0.124                  0.9966215       -168.9029
0.128                  0.9964116       -171.1131
0.132                  0.9968253       -173.2582
0.136                  0.9977706       -175.3569
0.14                   0.9990694       -177.4237
0.144                    1.00049       -179.4679
0.148                   1.001788        178.5077
0.152                   1.002747        176.5059
0.156                   1.003216         174.534
0.16                     1.00313        172.6022
0.164                   1.002517        170.7207
0.168                   1.001496        168.8985
0.172                   1.000251        167.1408
0.176                  0.9989999        165.4481
0.18                    0.997958        163.8159
0.184                  0.9972997         162.235
0.188                  0.9971297         160.693
0.192                  0.9974663        159.1762
0.196                  0.9982394        157.6718
0.2                    0.9993049        156.1697
0.204                   1.000471        154.6645
0.208                   1.001533        153.1554
0.212                   1.002309        151.6465
0.216                   1.002669        150.1457
0.22                    1.002556        148.6629
0.224                   1.001998        147.2086
0.228                   1.001098        145.7915
0.232                   1.000015        144.4172
0.236                  0.9989411        143.0869
0.24                   0.9980626        141.7977
0.244                  0.9975305        140.5419
0.248                  0.9974333        139.3095
0.252                  0.9977827         138.089
0.256                   0.998511        136.8697
0.26                    0.999486        135.6437
0.264                   1.000534        134.4068
0.268                    1.00147        133.1592
0.272                   1.002132        131.9055
0.276                   1.002407        130.6535
0.28                    1.002252        129.4129
0.284                   1.001697        128.1934
0.288                   1.000842        127.0033
0.292                  0.9998407        125.8476
0.296                  0.9988694        124.7276
0.3                     0.998099          123.64
0.304                  0.9976647         122.578
0.308                   0.997641         121.532
0.312                    0.99803        120.4916
0.316                  0.9987603        119.4473
0.32                   0.9997014        118.3921
0.324                   1.000686        117.3227
0.328                   1.001542        116.2403
0.332                   1.002119        115.1496
0.336                   1.002317        114.0587
0.34                    1.002106        112.9768
0.344                   1.001523        111.9136
0.348                   1.000672        110.8765
0.352                  0.9997056        109.8702
0.356                  0.9987938        108.8952
0.36                   0.9980981        107.9481
0.364                  0.9977413        107.0218
0.368                   0.997786        106.1071
0.372                  0.9982228        105.1939
0.376                  0.9989733        104.2734
0.38                   0.9999033        103.3394
0.384                   1.000848        102.3894
0.388                   1.001639        101.4252
0.392                   1.002139        100.4521
0.396                   1.002258        99.47826
0.4                     1.001978        98.51314
0.404                   1.001346        97.56582
0.408                   1.000475        96.64344
0.412                  0.9995191        95.74995
0.416                  0.9986463        94.88531
0.42                   0.9980117        94.04549
0.424                  0.9977276        93.22308
0.428                  0.9978442         92.4087
0.432                  0.9983401        91.59256
0.436                  0.9991264        90.76627
0.44                    1.000063        89.92433
0.444                   1.000982        89.06507
0.448                   1.001721        88.19087
0.452                   1.002149        87.30775
0.456                    1.00219         86.4242
0.46                    1.001835        85.54971
0.464                   1.001147        84.69321
0.468                   1.000248        83.86133
0.472                   0.999295        83.05732
0.476                  0.9984586        82.28043
0.48                   0.9978873        81.52588
0.484                  0.9976836        80.78581
0.488                  0.9978842        80.05054
0.492                  0.9984538        79.31042
0.496                  0.9992909        78.55744
0.5                     1.000247        77.78681
0.504                   1.001151        76.99766
0.508                   1.001843         76.1932
0.512                     1.0022        75.38013
0.516                   1.002157         74.5674
0.52                    1.001722        73.76469
0.524                   1.000971        72.98064
0.528                   1.000036        72.22145
0.532                  0.9990827        71.48958
0.536                  0.9982819        70.78345
0.54                    0.997777        70.09749
0.544                  0.9976594        69.42317
0.548                  0.9979515        68.75053
0.552                  0.9986019        68.06993
0.556                  0.9994954        67.37386
0.56                    1.000472         66.6582
0.564                   1.001359        65.92303
0.568                   1.001997        65.17247
0.572                   1.002273        64.41398
0.576                   1.002135        63.65705
0.58                    1.001606         62.9115
0.584                    1.00078         62.1858
0.588                  0.9998004        61.48554
0.592                  0.9988426        60.81238
0.596                  0.9980772        60.16373
0.6                    0.9976424        59.53311
0.604                  0.9976169        58.91132
0.608                  0.9980069        58.28801
0.612                  0.9987437        57.65361
0.616                  0.9996959         57.0011
0.62                    1.000694        56.32718
0.624                   1.001558        55.63292
0.628                   1.002135        54.92345
0.632                   1.002318        54.20711
0.636                   1.002075        53.49391
0.64                    1.001444        52.79384
0.644                   1.000537        52.11512
0.648                  0.9995129        51.46264
0.652                  0.9985542        50.83716
0.656                  0.9978332        50.23496
0.66                     0.99748        49.64857
0.664                  0.9975599          49.068
0.668                  0.9980609        48.48252
0.672                  0.9988941        47.88272
0.676                  0.9999115        47.26209
0.68                    1.000931         46.6183
0.684                   1.001771        45.95349
0.688                   1.002279        45.27395
0.692                   1.002363        44.58889
0.696                   1.002005        43.90893
0.7                     1.001266        43.24418
0.704                   1.000276         42.6025
0.708                  0.9992087        41.98803
0.712                  0.9982562        41.40044
0.716                  0.9975898        40.83482
0.72                   0.9973311        40.28258
0.724                  0.9975293        39.73292
0.728                  0.9981513        39.17479
0.732                  0.9990874        38.59892
0.736                   1.000171        37.99952
0.74                    1.001208        37.37529
0.744                   1.002012        36.72961
0.748                   1.002439        36.06996
0.752                   1.002408        35.40656
0.756                   1.001922        34.75057
0.76                    1.001064        34.11222
0.764                  0.9999837         33.4989
0.768                  0.9988732        32.91389
0.772                  0.9979308         32.3556
0.776                  0.9973274        31.81784
0.78                    0.997174         31.2908
0.784                   0.997501        30.76284
0.788                  0.9982523        30.22261
0.792                  0.9992952        29.66109
0.796                   1.000443        29.07332
0.8                     1.001491        28.45915
0.804                   1.002249        27.82336
0.808                   1.002579        27.17469
0.812                   1.002419         26.5244
0.816                   1.001792        25.88423
0.82                    1.000806         25.2644
0.824                  0.9996335        24.67179
0.828                  0.9984829        24.10859
0.832                  0.9975609        23.57188
0.836                  0.9970352        23.05399
0.84                   0.9970038        22.54384
0.844                  0.9974762        22.02893
0.848                  0.9983708        21.49763
0.852                  0.9995293        20.94129
0.856                   1.000745        20.35588
0.86                      1.0018         19.7426
0.864                   1.002503        19.10771
0.868                   1.002725        18.46136
0.872                   1.002422        17.81587
0.876                   1.001644        17.18355
0.88                    1.000522        16.57457
0.884                   0.999256        15.99513
0.888                  0.9980702        15.44625
0.892                  0.9971791        14.92346
0.896                  0.9967462         14.4175
0.9                     0.996854        13.91592
0.904                  0.9974877        13.40533
0.908                  0.9985377        12.87389
0.912                  0.9998179        12.31343
0.916                     1.0011          11.721
0.92                    1.002153        11.09932
0.924                   1.002786        10.45627
0.928                   1.002882        9.803533
0.932                   1.002417         9.15455
0.936                   1.001467        8.522199
0.94                    1.000196        7.916539
0.944                  0.9988271        7.342976
0.948                  0.9976051        6.801167
0.952                  0.9967509        6.284941
0.956                  0.9964224        5.783274
0.96                    0.996684         5.28223
0.964                  0.9974941        4.767499
0.968                  0.9987114        4.227046
0.972                    1.00012        3.653311
0.976                   1.001468        3.044573
0.98                    1.002512        2.405223
0.984                   1.003061         1.74497
0.988                   1.003011        1.077136
0.992                   1.002362       0.4163786
0.996                   1.001223      -0.2238464
1                      0.9997884      -0.8336494
1.004                  0.9983116        -1.40855
1.008                  0.9970565       -1.950437
1.012                  0.9962517       -2.467413
1.016                  0.9960478        -2.97247
1.02                   0.9964886       -3.481186
1.024                  0.9975017       -4.008869
1.028                  0.9989105       -4.567725
1.032                   1.000466        -5.16462
1.036                   1.001889       -5.799866
1.04                    1.002925        -6.46719
1.044                   1.003381       -7.154861
1.048                    1.00317       -7.847719
1.052                   1.002318       -8.529754
1.056                   1.000968       -9.186866
1.06                   0.9993532        -9.80936
1.064                   0.997758       -10.39379
1.068                  0.9964694       -10.94381
1.072                   0.995724       -11.46974
1.076                  0.9956641       -11.98675
1.08                   0.9963099        -12.5123
1.084                  0.9975543       -13.06284
1.088                  0.9991807       -13.65072
1.092                   1.000902       -14.28208
1.096                   1.002409       -14.95556
1.1                     1.003431       -15.66284
1.104                   1.003777       -16.38979
1.108                   1.003374       -17.11923
1.112                   1.002281        -17.8335
1.116                   1.000679        -18.5177
1.12                   0.9988441       -19.16236
1.124                  0.9970999       -19.76511
1.128                  0.9957599       -20.33166
1.132                  0.9950711        -20.8748
1.136                  0.9951678       -21.41235
1.14                    0.996044       -21.96397
1.144                  0.9975527       -22.54749
1.148                  0.9994308        -23.1756
1.152                   1.001346       -23.85355
1.156                   1.002954       -24.57826
1.16                    1.003963       -25.33887
1.164                   1.004181       -26.11863
1.168                   1.003553       -26.89775
1.172                   1.002171       -27.65666
1.176                   1.000265       -28.37938
1.18                   0.9981607       -29.05645
1.184                  0.9962286        -29.6868
1.188                  0.9948169        -30.2784
1.192                  0.9941889       -30.84705
1.196                  0.9944715       -31.41382
1.2                    0.9956297       -32.00117
1.204                  0.9974696       -32.62877
1.208                  0.9996723        -33.3099
1.212                   1.001848       -34.04898
1.216                   1.003609       -34.84091
1.22                    1.004631       -35.67191
1.224                   1.004717       -36.52196
1.228                    1.00383       -37.36801
1.232                   1.002103       -38.18788
1.236                  0.9998177       -38.96399
1.24                   0.9973666        -39.6866
1.244                  0.9951811        -40.3559
1.248                  0.9936581       -40.98254
1.252                   0.993086       -41.58611
1.256                  0.9935892       -42.19181
1.26                   0.9951003       -42.82591
1.264                  0.9973692       -43.51079
1.268                   1.000005       -44.26081
1.272                   1.002543       -45.07972
1.276                    1.00453       -45.96007
1.28                    1.005599       -46.88452
1.284                   1.005535       -47.82872
1.288                   1.004316       -48.76526
1.292                   1.002121       -49.66809
1.296                  0.9993029       -50.51697
1.3                    0.9963394       -51.30119
1.304                  0.9937497       -52.02206
1.308                  0.9920049       -52.69345
1.312                  0.9914396       -53.33988
1.316                  0.9921865       -53.99241
1.32                    0.994144       -54.68296
1.324                  0.9969903       -55.43828
1.328                   1.000236       -56.27497
1.332                    1.00331       -57.19653
1.336                   1.005659       -58.19281
1.34                     1.00684       -59.24176
1.344                     1.0066       -60.31308
1.348                   1.004925       -61.37278
1.352                   1.002045       -62.38868
1.356                  0.9984114        -63.3357
1.36                    0.994626       -64.20062
1.364                  0.9913466       -64.98534
1.368                  0.9891708       -65.70774
1.372                  0.9885242        -66.3995
1.376                  0.9895734       -67.10088
1.38                   0.9921838       -67.85332
1.384                  0.9959352       -68.69152
1.388                    1.00019       -69.63698
1.392                   1.004202       -70.69413
1.396                   1.007243       -71.84972
1.4                     1.008729       -73.07514
1.404                   1.008315       -74.33068
1.408                   1.005964       -75.57152
1.412                    1.00197       -76.75436
1.416                  0.9969231        -77.8443
1.42                    0.991633       -78.82157
1.424                  0.9870068       -79.68665
1.428                  0.9838921       -80.46248
1.432                  0.9829174       -81.19254
1.436                   0.984359       -81.93408
1.44                   0.9880669       -82.74763
1.444                  0.9934716       -83.68532
1.448                  0.9996713         -84.781
1.452                    1.00558       -86.04422
1.456                   1.010105       -87.45902
1.46                    1.012324       -88.98666
1.464                   1.011639       -90.57109
1.468                   1.007882       -92.14612
1.472                   1.001376       -93.64401
1.476                  0.9929281       -95.00515
1.48                   0.9837537       -96.18887
1.484                  0.9753224       -97.18407
1.488                  0.9691307       -98.01773
1.492                  0.9664236       -98.75714
1.496                  0.9679209       -99.50297
1.5                    0.9736104       -100.3725
1.504                  0.9826746       -101.4771
1.508                  0.9935683       -102.9021
1.512                   1.004223       -104.6926
1.516                   1.012316       -106.8504
1.52                    1.015547       -109.3364
1.524                   1.011883       -112.0778
1.528                   0.999757       -114.9726
1.532                  0.9782203       -117.8939
1.536                  0.9470664       -120.6886
1.54                   0.9069381       -123.1752
1.544                  0.8594323       -125.1393
1.548                  0.8072075       -126.3338
1.552                  0.7540783       -126.4942
1.556                  0.7050065       -125.3893
1.56                   0.6657892       -122.9303
1.564                  0.6421367       -119.3242
1.568                  0.6380654       -115.1586
1.572                  0.6543124       -111.2536
1.576                  0.6880052       -108.3208
1.58                   0.7338913       -106.7162
1.584                  0.7860743       -106.4488
1.588                  0.8392248       -107.3275
1.592                  0.8890922       -109.0927
1.596                  0.9325943       -111.4889
1.6                    0.9677436       -114.2897
1.604                   0.993535       -117.3032
1.608                   1.009836       -120.3676
1.612                   1.017279       -123.3483
1.616                   1.017146       -126.1352
1.62                    1.011235       -128.6444
1.624                   1.001684       -130.8223
1.628                  0.9907615       -132.6514
1.632                  0.9806153       -134.1545
1.636                  0.9730133       -135.3947
1.64                   0.9691168       -136.4672
1.644                   0.969348       -137.4831
1.648                   0.973387       -138.5486
1.652                  0.9803044       -139.7465
1.656                  0.9887915        -141.124
1.66                   0.9974214       -142.6912
1.664                    1.00489       -144.4253
1.668                   1.010195         -146.28
1.672                    1.01275       -148.1958
1.676                   1.012423       -150.1088
1.68                    1.009516       -151.9601
1.684                   1.004698       -153.7023
1.688                  0.9988837       -155.3059
1.692                  0.9930927       -156.7629
1.696                  0.9882861       -158.0888
1.7                    0.9852154       -159.3192
1.704                   0.984307       -160.5041
1.708                  0.9856039       -161.6982
1.712                  0.9887798       -162.9512
1.716                  0.9932178       -164.2985
1.72                   0.9981342       -165.7571
1.724                   1.002719       -167.3242
1.728                   1.006266       -168.9794
1.732                   1.008276         -170.69
1.736                   1.008518       -172.4167
1.74                    1.007048       -174.1192
1.744                   1.004188       -175.7624
1.748                   1.000464       -177.3214
1.752                  0.9965218       -178.7843
1.756                  0.9930196        179.8451
1.76                   0.9905209        178.5485
1.764                  0.9894036         177.296
1.768                  0.9898021        176.0519
1.772                  0.9915923        174.7811
1.776                  0.9944246        173.4551
1.78                    0.997793        172.0569
1.784                   1.001127        170.5829
1.788                   1.003889        169.0428
1.792                   1.005656        167.4568
1.796                   1.006185        165.8522
1.8                     1.005438        164.2585
1.804                   1.003582        162.7037
1.808                   1.000958        161.2091
1.812                  0.9980214        159.7871
1.816                  0.9952655        158.4387
1.82                    0.993142        157.1538
1.824                  0.9919854        155.9123
1.828                  0.9919592        154.6887
1.832                  0.9930325        153.4558
1.836                  0.9949914          152.19
1.84                   0.9974818        150.8754
1.844                   1.000074        149.5056
1.848                   1.002337         148.085
1.852                    1.00391        146.6269
1.856                   1.004556        145.1512
1.86                    1.004197         143.681
1.864                    1.00292        142.2389
1.868                   1.000959        140.8438
1.872                  0.9986559        139.5073
1.876                  0.9964003        138.2327
1.88                   0.9945666         137.014
1.884                  0.9934498        135.8371
1.888                  0.9932178        134.6822
1.892                  0.9938855        133.5275
1.896                  0.9953142         132.353
1.9                    0.9972421        131.1441
1.904                  0.9993309        129.8937
1.908                   1.001226        128.6031
1.912                   1.002615        127.2815
1.916                   1.003279        125.9442
1.92                    1.003125        124.6099
1.924                   1.002196        123.2974
1.928                   1.000663        122.0228
1.932                  0.9987943        120.7973
1.936                  0.9969079        119.6248
1.94                   0.9953201        118.5014
1.944                  0.9942896        117.4166
1.948                  0.9939766        116.3545
1.952                  0.9944148         115.297
1.956                  0.9955096        114.2271
1.96                    0.997057        113.1316
1.964                  0.9987815        112.0033
1.968                   1.000385        110.8424
1.972                   1.001598        109.6554
1.976                   1.002224        108.4546
1.98                    1.002168        107.2553
1.984                   1.001451        106.0736
1.988                   1.000207        104.9234
1.992                  0.9986524        103.8147
1.996                  0.9970545        102.7514
2                      0.9956826         101.731
2.004                  0.9947623        100.7448
2.008                  0.9944384        99.77995
2.012                  0.9947509        98.82104
2.016                  0.9956288        97.85341
2.02                   0.9969067        96.86545
2.024                  0.9983544        95.85057
2.028                  0.9997188        94.80821
2.032                   1.000767        93.74362
2.036                   1.001325         92.6668
2.04                    1.001306        91.59069
2.044                   1.000721          90.529
2.048                  0.9996785        89.49387
2.052                  0.9983603        88.49388
2.056                  0.9969927        87.53265
2.06                   0.9958059        86.60832
2.064                  0.9949958        85.71375
2.068                  0.9946893        84.83791
2.072                  0.9949247        83.96781
2.076                  0.9956458         83.0908
2.08                   0.9967143        82.19681
2.084                  0.9979354        81.28002
2.088                  0.9990933        80.33962
2.092                  0.9999873        79.37992
2.096                   1.000467        78.40932
2.1                     1.000454        77.43881
2.104                  0.9999564         76.4801
2.108                  0.9990629         75.5436
2.112                  0.9979278        74.63676
2.116                  0.9967432        73.76283
2.12                    0.995706         72.9203
2.124                  0.9949846        72.10323
2.128                  0.9946894        71.30228
2.132                   0.994856        70.50643
2.136                  0.9954399        69.70488
2.14                   0.9963264        68.88887
2.144                  0.9973517        68.05327
2.148                  0.9983322        67.19716
2.152                  0.9990965        66.32393
2.156                  0.9995134        65.44054
2.16                   0.9995132         64.5562
2.164                   0.999097        63.68085
2.168                  0.9983356        62.82343
2.172                  0.9973559        61.99048
2.176                  0.9963186        61.18502
2.18                   0.9953907        60.40615
2.184                  0.9947178        59.64915
2.188                  0.9943993        58.90645
2.192                  0.9944732        58.16882
2.196                  0.9949111        57.42701
2.2                     0.995624        56.67338
2.204                    0.99648        55.90298
2.208                  0.9973258         55.1144
2.212                  0.9980138        54.30977
2.216                  0.9984252        53.49437
2.22                   0.9984887        52.67556
2.224                  0.9981899        51.86165
2.228                  0.9975728        51.06047
2.232                  0.9967319        50.27818
2.236                  0.9957947         49.5183
2.24                   0.9949019        48.78121
2.244                  0.9941854        48.06408
2.248                  0.9937463        47.36136
2.252                  0.9936406        46.66571
2.256                  0.9938708         45.9691
2.26                   0.9943868        45.26418
2.264                  0.9950943        44.54526
2.268                    0.99587        43.80922
2.272                  0.9965804        43.05589
2.276                  0.9971017          42.288
2.28                   0.9973382        41.51066
2.284                   0.997235        40.73069
2.288                  0.9967863        39.95557
2.292                  0.9960364         39.1924
2.296                  0.9950734        38.44689
2.3                    0.9940188         37.7225
2.304                  0.9930101        37.01987
2.308                  0.9921825        36.33658
2.312                  0.9916495        35.66735
2.316                  0.9914852        35.00457
2.32                   0.9917116        34.33933
2.324                  0.9922925        33.66247
2.328                  0.9931334        32.96604
2.332                  0.9940918        32.24438
2.336                   0.994993        31.49514
2.34                   0.9956532        30.71985
2.344                  0.9959046        29.92397
2.348                  0.9956216        29.11649
2.352                  0.9947442        28.30892