! TOUCHSTONE file generated by CST MICROWAVE STUDIO
! Date and time: Tue Jun  7 20:32:31 2022
! Project name: AppElm_antenne_patch_FR4.cst
! Parameters = {L=45; W=58.5; e=0.035; h=1.6; lambda=0.190476; ls=120; w0=1.6; w1=0.533333; ws=120; y0=20; y1=23.8095}
! Header version: 2018
! Port assignment regex: !\s*Touchstone port\s*([0-9]+)\s*=\s*(CST MWS port|CST DS port)\s*([0-9]+|Zmin|Zmax)\s*\(\"(.*)\"\)(\s*mode\s*([0-9]+))?.*
! Touchstone port assignment:
! Touchstone port 1 = CST MWS port 1 ("")
# GHz S MA R 50
0                      0.9892865              -0
0.004                  0.9899267       -9.930473
0.008                  0.9917591       -19.77384
0.012                  0.9945326       -29.44722
0.016                  0.9978716       -38.87557
0.02                    1.001332       -47.99406
0.024                   1.004464       -56.74929
0.028                   1.006876       -65.09941
0.032                   1.008281       -73.01368
0.036                   1.008538       -80.47177
0.04                     1.00766        -87.4632
0.044                   1.005812       -93.98718
0.048                   1.003287       -100.0524
0.052                    1.00046       -105.6772
0.056                  0.9977345       -110.8891
0.06                   0.9954888       -115.7239
0.064                  0.9940176       -120.2238
0.068                  0.9934919       -124.4344
0.072                  0.9939373       -128.4016
0.076                  0.9952347       -132.1678
0.08                   0.9971452       -135.7687
0.084                  0.9993507       -139.2315
0.088                   1.001506       -142.5737
0.092                   1.003292       -145.8037
0.096                   1.004461       -148.9225
0.1                      1.00487       -151.9257
0.104                   1.004496       -154.8064
0.108                   1.003438        -157.558
0.112                   1.001892       -160.1762
0.116                   1.000122       -162.6615
0.12                   0.9984165       -165.0199
0.124                  0.9970436       -167.2632
0.128                  0.9962083       -169.4081
0.132                  0.9960218       -171.4743
0.136                  0.9964877       -173.4822
0.14                   0.9975043       -175.4501
0.144                  0.9988855       -177.3923
0.148                   1.000394       -179.3175
0.152                   1.001781        178.7718
0.156                   1.002829        176.8786
0.16                    1.003379        175.0107
0.164                   1.003362        173.1782
0.168                     1.0028        171.3918
0.172                   1.001802         169.661
0.176                   1.000546        167.9914
0.18                   0.9992447        166.3847
0.184                  0.9981152        164.8371
0.188                   0.997339        163.3407
0.192                  0.9970348        161.8837
0.196                  0.9972395         160.453
0.2                    0.9979046        159.0356
0.204                  0.9989057        157.6211
0.208                   1.000066        156.2028
0.212                   1.001188        154.7788
0.216                   1.002084        153.3517
0.22                    1.002611        151.9281
0.224                   1.002689        150.5171
0.228                   1.002314        149.1288
0.232                   1.001561        147.7724
0.236                   1.000561        146.4544
0.24                   0.9994882        145.1781
0.244                  0.9985248        143.9421
0.248                  0.9978313        142.7411
0.252                  0.9975199        141.5667
0.256                  0.9976366        140.4084
0.26                   0.9981532        139.2557
0.264                  0.9989742        138.0997
0.268                  0.9999541        136.9347
0.272                   1.000923        135.7586
0.276                   1.001717        134.5737
0.28                    1.002203        133.3856
0.284                   1.002303        132.2025
0.288                   1.002005        131.0334
0.292                   1.001367        129.8871
0.296                   1.000499        128.7699
0.3                    0.9995538        127.6853
0.304                  0.9986936        126.6329
0.308                  0.9980646        125.6083
0.312                  0.9977726        124.6046
0.316                  0.9978635        123.6125
0.32                   0.9983173        122.6227
0.324                  0.9990516        121.6273
0.328                  0.9999365        120.6209
0.332                   1.000818        119.6017
0.336                   1.001544        118.5716
0.34                    1.001991        117.5359
0.344                   1.002086         116.502
0.348                   1.001814        115.4786
0.352                   1.001226        114.4737
0.356                   1.000426        113.4935
0.36                    0.999553        112.5415
0.364                   0.998759        111.6173
0.368                  0.9981819        110.7172
0.372                  0.9979207        109.8345
0.376                  0.9980192        108.9607
0.38                   0.9984581        108.0871
0.384                   0.999159        107.2063
0.388                  0.9999984        106.3132
0.392                   1.000829        105.4064
0.396                   1.001508        104.4877
0.4                     1.001916        103.5622
0.404                   1.001985        102.6373
0.408                   1.001704        101.7213
0.412                   1.001123        100.8219
0.416                   1.000343        99.94527
0.42                   0.9995016        99.09436
0.424                  0.9987454        98.26889
0.428                  0.9982066        97.46502
0.432                  0.9979792        96.67619
0.436                  0.9981024        95.89414
0.44                   0.9985538        95.11042
0.444                  0.9992534         94.3179
0.448                   1.000078        93.51191
0.452                   1.000882         92.6912
0.456                   1.001525        91.85791
0.46                    1.001894        91.01735
0.464                   1.001926        90.17692
0.468                   1.001615        89.34484
0.472                   1.001014         88.5288
0.476                    1.00023        87.73453
0.48                   0.9993992        86.96482
0.484                  0.9986686        86.21902
0.488                  0.9981671          85.493
0.492                  0.9979833        84.78001
0.496                  0.9981504        84.07171
0.5                    0.9986388        83.35974
0.504                  0.9993624        82.63714
0.508                   1.000193        81.89965
0.512                   1.000985        81.14639
0.516                   1.001598           80.38
0.52                    1.001922        79.60616
0.524                   1.001901        78.83255
0.528                   1.001536        78.06757
0.532                   1.000891        77.31882
0.536                   1.000077        76.59178
0.54                   0.9992373        75.88887
0.544                  0.9985205        75.20895
0.548                  0.9980535        74.54737
0.552                  0.9979199        73.89697
0.556                  0.9981442        73.24909
0.56                   0.9986875         72.5953
0.564                  0.9994536        71.92884
0.568                   1.000307        71.24582
0.572                   1.001097        70.54592
0.576                   1.001681        69.83238
0.58                    1.001956         69.1115
0.584                   1.001872        68.39137
0.588                    1.00144        67.68067
0.592                   1.000736        66.98697
0.596                  0.9998825        66.31549
0.6                    0.9990299        65.66817
0.604                  0.9983301        65.04314
0.608                  0.9979088        64.43511
0.612                  0.9978429         63.8362
0.616                  0.9981463         63.2374
0.62                   0.9987666         62.6301
0.624                  0.9995947        62.00774
0.628                   1.000484        61.36691
0.632                   1.001276        60.70801
0.636                    1.00183         60.0351
0.64                    1.002044        59.35523
0.644                   1.001878        58.67714
0.648                   1.001359        58.00981
0.652                   1.000576        57.36089
0.656                  0.9996653        56.73523
0.66                   0.9987884        56.13412
0.664                   0.998102        55.55487
0.668                  0.9977301        54.99125
0.672                  0.9977415        54.43462
0.676                  0.9981368        53.87538
0.68                   0.9988473        53.30477
0.684                  0.9997479        52.71645
0.688                   1.000678        52.10763
0.692                   1.001472        51.47954
0.696                   1.001985        50.83724
0.7                     1.002125        50.18874
0.704                   1.001861         49.5435
0.708                   1.001239        48.91091
0.712                   1.000364        48.29857
0.716                  0.9993901         47.7109
0.72                   0.9984913        47.14837
0.724                   0.997829        46.60722
0.728                  0.9975249        46.08014
0.732                  0.9976364         45.5575
0.736                  0.9981475        45.02909
0.74                     0.99897        44.48596
0.744                  0.9999581        43.92213
0.748                   1.000936        43.33554
0.752                   1.001728        42.72854
0.756                    1.00219        42.10738
0.76                    1.002235        41.48118
0.764                   1.001851        40.86027
0.768                   1.001102        40.25447
0.772                   1.000115        39.67131
0.776                  0.9990652        39.11464
0.78                   0.9981391        38.58391
0.784                  0.9975043         38.0741
0.788                  0.9972778        37.57657
0.792                   0.997504        37.08059
0.796                  0.9981463        36.57525
0.8                    0.9990921        36.05149
0.804                   1.000174        35.50374
0.808                   1.001197        34.93094
0.812                   1.001976        34.33672
0.816                   1.002369        33.72875
0.82                    1.002299        33.11741
0.824                   1.001772        32.51399
0.828                   1.000877        31.92871
0.832                  0.9997676        31.36894
0.836                  0.9986409        30.83774
0.84                   0.9976987        30.33329
0.844                  0.9971131        29.84903
0.848                  0.9969941        29.37479
0.852                  0.9973686        28.89856
0.856                  0.9981747        28.40869
0.86                   0.9992715        27.89607
0.864                   1.000464        27.35578
0.868                   1.001538        26.78796
0.872                   1.002299        26.19781
0.876                   1.002605        25.59467
0.88                    1.002395         24.9904
0.884                   1.001699        24.39732
0.888                   1.000634        23.82608
0.892                  0.9993844        23.28375
0.896                  0.9981724        22.77241
0.9                    0.9972164        22.28869
0.904                  0.9966922        21.82423
0.908                  0.9967001        21.36704
0.912                  0.9972453        20.90371
0.916                  0.9982352        20.42187
0.92                   0.9994955        19.91244
0.924                   1.000801        19.37137
0.928                   1.001917        18.80028
0.932                   1.002637        18.20625
0.936                   1.002827        17.60055
0.94                    1.002443         16.9967
0.944                   1.001544        16.40813
0.948                   1.000282        15.84586
0.952                  0.9988773        15.31644
0.956                  0.9975806         14.8207
0.96                   0.9966277        14.35335
0.964                  0.9961962        13.90382
0.968                  0.9963728        13.45804
0.972                  0.9971342        13.00101
0.976                  0.9983507        12.51959
0.98                   0.9998085        12.00492
0.984                   1.001247        11.45404
0.988                   1.002407        10.87047
0.992                   1.003075        10.26352
0.996                   1.003121        9.646736
1                       1.002527        9.035534
1.004                   1.001386        8.444597
1.008                  0.9998939        7.885266
1.012                  0.9983108        7.363434
1.016                  0.9969203        6.878304
1.02                   0.9959769        6.422289
1.024                  0.9956588        5.982203
1.028                  0.9960335        5.541556
1.032                  0.9970434        5.083588
1.036                  0.9985142         4.59439
1.04                    1.000185        4.065499
1.044                   1.001756        3.495445
1.048                   1.002941        2.890008
1.052                   1.003517        2.261208
1.056                   1.003368        1.625238
1.06                    1.002505       0.9997251
1.064                   1.001067       0.4007012
1.068                  0.9992978      -0.1602388
1.072                  0.9975086      -0.6781553
1.076                  0.9960208       -1.155922
1.08                   0.9951091       -1.604012
1.084                  0.9949499       -2.038819
1.088                  0.9955853       -2.479751
1.092                  0.9969139       -2.945634
1.096                  0.9987059       -3.451178
1.1                     1.000644       -4.004241
1.104                    1.00238       -4.604412
1.108                   1.003596       -5.243035
1.112                   1.004062        -5.90488
1.116                   1.003677       -6.570496
1.12                    1.002491       -7.219637
1.124                   1.000695       -7.834655
1.128                  0.9985967       -8.403757
1.132                  0.9965656       -8.923198
1.136                  0.9949692       -9.398457
1.14                   0.9941053       -9.843582
1.144                  0.9941459       -10.27889
1.148                  0.9951008       -10.72732
1.152                   0.996813       -11.21011
1.156                  0.9989844       -11.74283
1.16                    1.001228       -12.33245
1.164                   1.003138       -12.97609
1.168                    1.00436        -13.6616
1.172                   1.004657       -14.36957
1.176                   1.003948       -15.07663
1.18                    1.002332       -15.75932
1.184                    1.00007       -16.39805
1.188                  0.9975482       -16.98074
1.192                  0.9952114        -17.5053
1.196                  0.9934849       -17.98061
1.2                    0.9926961       -18.42534
1.204                    0.99301       -18.86494
1.208                  0.9943943       -19.32689
1.212                  0.9966196       -19.83558
1.216                  0.9992991       -20.40763
1.22                    1.001956       -21.04886
1.224                    1.00411       -21.75324
1.228                   1.005358       -22.50406
1.232                   1.005451       -23.27668
1.236                   1.004336       -24.04261
1.24                    1.002173       -24.77412
1.244                  0.9993134       -25.44902
1.248                  0.9962443       -26.05477
1.252                  0.9935099        -26.5913
1.256                  0.9916127       -27.07187
1.26                   0.9909203       -27.52131
1.264                  0.9915901       -27.97185
1.268                  0.9935336       -28.45711
1.272                  0.9964261       -29.00565
1.276                  0.9997623       -29.63552
1.28                    1.002945       -30.35101
1.284                    1.00539       -31.14192
1.288                   1.006632       -31.98544
1.292                   1.006401       -32.84983
1.296                   1.004678       -33.69957
1.3                     1.001707       -34.50091
1.304                  0.9979606       -35.22773
1.308                  0.9940718       -35.86648
1.312                   0.990727       -36.41963
1.316                  0.9885446        -36.9065
1.32                   0.9879559       -37.36073
1.324                   0.989115       -37.82456
1.328                  0.9918586       -38.34082
1.332                  0.9957283       -38.94457
1.336                   1.000047       -39.65644
1.34                     1.00404       -40.47899
1.344                    1.00697       -41.39638
1.348                   1.008262       -42.37731
1.352                   1.007609        -43.3799
1.356                   1.005029       -44.35813
1.36                    1.000874       -45.26889
1.364                  0.9957943       -46.07931
1.368                  0.9906373       -46.77331
1.372                  0.9863138       -47.35619
1.376                  0.9836324       -47.85595
1.38                   0.9831406        -48.3198
1.384                   0.985004       -48.80607
1.388                  0.9889563       -49.37287
1.392                  0.9943346       -50.06659
1.396                   1.000191       -50.91298
1.4                      1.00546       -51.91281
1.404                   1.009138       -53.04227
1.408                   1.010457       -54.25716
1.412                   1.009014       -55.49943
1.416                   1.004852       -56.70543
1.42                   0.9984835       -57.81502
1.424                  0.9908342       -58.78148
1.428                  0.9831267       -59.58108
1.432                   0.976688        -60.2211
1.436                  0.9727131       -60.74304
1.44                   0.9720216       -61.21872
1.444                  0.9748649       -61.73825
1.448                  0.9808388       -62.39209
1.452                  0.9889302        -63.2525
1.456                  0.9976872       -64.35984
1.46                    1.005466       -65.71653
1.464                   1.010701       -67.28849
1.468                   1.012155       -69.01134
1.472                   1.009116       -70.79937
1.476                   1.001536       -72.55559
1.48                   0.9900931       -74.18332
1.484                  0.9761698       -75.60015
1.488                  0.9617221         -76.755
1.492                  0.9490258       -77.64658
1.496                  0.9402912       -78.33849
1.5                    0.9371947       -78.96178
1.504                  0.9404343       -79.69811
1.508                  0.9494534       -80.74473
1.512                  0.9624325       -82.27386
1.516                  0.9765417       -84.40323
1.52                   0.9883509       -87.18617
1.524                  0.9942624       -90.61894
1.528                  0.9908781        -94.6562
1.532                  0.9752684       -99.22625
1.536                  0.9451469       -104.2422
1.54                   0.8989726       -109.6072
1.544                  0.8359993       -115.2125
1.548                  0.7562892       -120.9279
1.552                  0.6607056       -126.5757
1.556                   0.550909       -131.8663
1.56                   0.4294278       -136.2115
1.564                  0.3001211       -138.0417
1.568                  0.1712825       -131.1223
1.572                  0.0895581       -81.20812
1.576                  0.1679575         -29.434
1.58                   0.2966578        -22.0531
1.584                  0.4263134       -23.80912
1.588                  0.5483253       -28.17364
1.592                  0.6587378       -33.52544
1.596                  0.7549459       -39.26223
1.6                     0.835213       -45.08886
1.604                  0.8985995       -50.82476
1.608                  0.9449708       -56.33731
1.612                  0.9750116       -61.51512
1.616                  0.9902211        -66.2574
1.62                   0.9928739       -70.47214
1.624                  0.9859298       -74.08096
1.628                  0.9728698       -77.03069
1.632                   0.957433       -79.31016
1.636                  0.9432411       -80.96832
1.64                   0.9333363       -82.12465
1.644                  0.9297249       -82.96107
1.648                  0.9330711       -83.69108
1.652                  0.9426729       -84.51457
1.656                  0.9567402       -85.57748
1.66                   0.9728696       -86.95181
1.664                  0.9885552       -88.63804
1.668                   1.001608       -90.58162
1.672                   1.010441       -92.69335
1.676                   1.014213       -94.86744
1.68                     1.01287       -96.99618
1.684                   1.007093       -98.98158
1.688                  0.9981727       -100.7461
1.692                  0.9878198       -102.2428
1.696                  0.9779061       -103.4637
1.7                    0.9701707       -104.4444
1.704                  0.9659252       -105.2602
1.708                  0.9658262       -106.0135
1.712                  0.9697724       -106.8127
1.716                  0.9769608       -107.7498
1.72                   0.9860796        -108.884
1.724                  0.9955788       -110.2346
1.728                   1.003951        -111.783
1.732                   1.009963       -113.4811
1.736                   1.012826       -115.2616
1.74                    1.012271       -117.0496
1.744                   1.008568       -118.7718
1.748                   1.002463       -120.3667
1.752                  0.9950596       -121.7924
1.756                  0.9876488       -123.0339
1.76                   0.9814989       -124.1066
1.764                  0.9776428       -125.0551
1.768                  0.9766977        -125.946
1.772                  0.9787603        -126.855
1.776                  0.9834041       -127.8519
1.78                   0.9897777       -128.9874
1.784                  0.9967775       -130.2858
1.788                   1.003249       -131.7425
1.792                   1.008176       -133.3286
1.796                   1.010835       -134.9967
1.8                     1.010884       -136.6897
1.804                   1.008401        -138.349
1.808                   1.003863       -139.9222
1.812                  0.9980631       -141.3711
1.816                  0.9919909        -142.677
1.82                   0.9866702       -143.8452
1.824                  0.9829908       -144.9048
1.828                  0.9815525       -145.9038
1.832                  0.9825619       -146.9012
1.836                   0.985802       -147.9549
1.84                   0.9906814       -149.1114
1.844                  0.9963535       -150.3973
1.848                    1.00187       -151.8168
1.852                   1.006342       -153.3523
1.856                    1.00908       -154.9687
1.86                    1.009689       -156.6204
1.864                   1.008121       -158.2574
1.868                   1.004674       -159.8332
1.872                  0.9999445       -161.3108
1.876                  0.9947294       -162.6689
1.88                   0.9899033       -163.9057
1.884                  0.9862725       -165.0396
1.888                  0.9844369        -166.107
1.892                  0.9846859       -167.1562
1.896                  0.9869486       -168.2376
1.9                    0.9908132       -169.3951
1.904                  0.9956075       -170.6578
1.908                   1.000523       -172.0358
1.912                   1.004752         -173.52
1.916                   1.007623       -175.0842
1.92                    1.008694       -176.6906
1.924                    1.00782       -178.2955
1.928                   1.005168        -179.856
1.932                   1.001189        178.6644
1.936                  0.9965465        177.2896
1.94                   0.9920133        176.0271
1.944                  0.9883443         174.866
1.948                  0.9861491        173.7783
1.952                   0.985786        172.7236
1.956                   0.987298        171.6561
1.96                    0.990409        170.5335
1.964                  0.9945767        169.3244
1.968                  0.9990935        168.0136
1.972                   1.003209        166.6038
1.976                   1.006254         165.114
1.98                    1.007746         163.576
1.984                   1.007457        162.0287
1.988                   1.005449        160.5131
1.992                   1.002059        159.0652
1.996                  0.9978493        157.7116
2                      0.9935178        156.4643
2.004                  0.9897861        155.3184
2.008                  0.9872783        154.2527
2.012                  0.9864116        153.2322
2.016                   0.987323        152.2149
2.02                   0.9898446        151.1591
2.024                  0.9935369        150.0314
2.028                  0.9977686        148.8122
2.032                   1.001829        147.4986
2.036                   1.005047        146.1041
2.04                    1.006899        144.6555
2.044                   1.007086        143.1886
2.048                   1.005583        141.7423
2.052                   1.002636        140.3534
2.056                  0.9987266        139.0507
2.06                   0.9944994        137.8501
2.064                  0.9906565         136.752
2.068                  0.9878413        135.7402
2.072                  0.9865278        134.7841
2.076                  0.9869338        133.8442
2.08                   0.9889825        132.8789
2.084                  0.9923165        131.8526
2.088                  0.9963633        130.7416
2.092                   1.000437        129.5381
2.096                   1.003856        128.2508
2.1                     1.006051        126.9026
2.104                    1.00666        125.5268
2.108                   1.005575        124.1615
2.112                   1.002968        122.8445
2.116                  0.9992575        121.6068
2.12                   0.9950483        120.4685
2.124                  0.9910367        119.4344
2.128                  0.9878949        118.4927
2.132                  0.9861551        117.6162
2.136                   0.986113         116.767
2.14                   0.9877738        115.9027
2.144                  0.9908488        114.9851
2.148                  0.9948091        113.9863
2.152                  0.9989781        112.8938
2.156                   1.002649         111.712
2.16                    1.005201        110.4605
2.164                   1.006199        109.1709
2.168                    1.00546        107.8816
2.172                   1.003082        106.6319
2.176                  0.9994322        105.4563
2.18                   0.9950939        104.3791
2.184                  0.9907745        103.4098
2.188                   0.987193        102.5408
2.192                  0.9849563        101.7478
2.196                   0.984449         100.993
2.2                    0.9857618        100.2326
2.204                  0.9886714        99.42386
2.208                  0.9926784        98.53377
2.212                  0.9970964        97.54428
2.216                    1.00117        96.45512
2.22                    1.004199        95.28306
2.224                   1.005655        94.05876
2.228                   1.005259        92.82186
2.232                    1.00303        91.61498
2.236                  0.9992852        90.47768
2.24                    0.994598        89.44013
2.244                  0.9897135        88.51795
2.248                  0.9854315         87.7085
2.252                  0.9824726        86.99009
2.256                  0.9813485        86.32456
2.26                   0.9822641         85.6637
2.264                  0.9850731        84.95803
2.268                  0.9892989        84.16597
2.272                  0.9942159        83.26135
2.276                  0.9989734         82.2375
2.28                    1.002737        81.10762
2.284                   1.004821        79.90216
2.288                   1.004799        78.66393
2.292                   1.002571         77.4419
2.296                  0.9983862        76.28434
2.3                    0.9928205        75.23184
2.304                  0.9867004        74.31027
2.308                  0.9809827        73.52533
2.312                  0.9766013        72.85932
2.316                  0.9743033        72.27196
2.32                   0.9745034        71.70616
2.324                  0.9771932        71.09788
2.328                  0.9819257        70.38806
2.332                  0.9878829        69.53366
2.336                  0.9940089        68.51469
2.34                     0.99918        67.33696
2.344                    1.00238        66.03015
2.348                   1.002855        64.64315
2.352                   1.000231        63.23747