! TOUCHSTONE file generated by CST MICROWAVE STUDIO
! Date and time: Tue Jun  7 20:32:36 2022
! Project name: AppElm_antenne_patch_FR4.cst
! Parameters = {L=45; W=58.5; e=0.035; h=1.6; lambda=0.190476; ls=120; w0=1.6; w1=0.533333; ws=120; y0=25; y1=23.8095}
! Header version: 2018
! Port assignment regex: !\s*Touchstone port\s*([0-9]+)\s*=\s*(CST MWS port|CST DS port)\s*([0-9]+|Zmin|Zmax)\s*\(\"(.*)\"\)(\s*mode\s*([0-9]+))?.*
! Touchstone port assignment:
! Touchstone port 1 = CST MWS port 1 ("")
# GHz S MA R 50
0                      0.9909917              -0
0.004                  0.9915609       -9.950373
0.008                  0.9931864       -19.81454
0.012                  0.9956357        -29.5104
0.016                  0.9985622       -38.96339
0.02                    1.001559       -48.10895
0.024                   1.004217       -56.89376
0.028                    1.00619       -65.27602
0.032                   1.007232       -73.22518
0.036                   1.007239        -80.7214
0.04                    1.006252       -87.75513
0.044                   1.004451       -94.32693
0.048                   1.002127       -100.4472
0.052                  0.9996371       -106.1361
0.056                  0.9973509       -111.4228
0.06                   0.9955946       -116.3441
0.064                  0.9946039       -120.9421
0.068                  0.9944881       -125.2615
0.072                  0.9952185       -129.3456
0.076                  0.9966378       -133.2333
0.08                   0.9984891       -136.9563
0.084                   1.000462       -140.5378
0.088                   1.002243       -143.9915
0.092                   1.003566       -147.3236
0.096                   1.004245       -150.5335
0.1                     1.004208        -153.617
0.104                   1.003497       -156.5687
0.108                   1.002258       -159.3847
0.112                   1.000715       -162.0646
0.116                  0.9991331       -164.6128
0.12                   0.9977735       -167.0393
0.124                  0.9968507        -169.359
0.128                  0.9964992       -171.5904
0.132                  0.9967543        -173.753
0.136                  0.9975479       -175.8656
0.14                   0.9987251        -177.943
0.144                   1.000073       -179.9954
0.148                   1.001359        177.9731
0.152                   1.002368         175.964
0.156                   1.002941        173.9832
0.16                    1.002997        172.0397
0.164                   1.002542        170.1433
0.168                   1.001669        168.3028
0.172                   1.000539        166.5238
0.176                  0.9993514        164.8079
0.18                   0.9983097        163.1519
0.184                  0.9975881        161.5481
0.188                  0.9973016        159.9855
0.192                  0.9974872        158.4515
0.196                     0.9981        156.9338
0.2                    0.9990225        155.4223
0.204                   1.000087        153.9108
0.208                   1.001106        152.3973
0.212                   1.001905        150.8845
0.216                   1.002351        149.3787
0.22                    1.002375        147.8887
0.224                   1.001983        146.4237
0.228                   1.001251        144.9923
0.232                   1.000313        143.6001
0.236                  0.9993343        142.2495
0.24                   0.9984881        140.9384
0.244                  0.9979192         139.661
0.248                  0.9977221        138.4088
0.252                  0.9979254        137.1717
0.256                  0.9984863        135.9397
0.26                   0.9993004        134.7052
0.264                   1.000221        133.4633
0.268                   1.001085        132.2133
0.272                   1.001743        130.9583
0.276                   1.002084        129.7044
0.28                    1.002051        128.4598
0.284                   1.001658        127.2332
0.288                   1.000976        126.0321
0.292                    1.00013        124.8616
0.296                  0.9992707        123.7236
0.3                     0.998549        122.6163
0.304                   0.998091        121.5342
0.308                  0.9979744        120.4696
0.312                  0.9982166        119.4136
0.316                    0.99877        118.3576
0.32                   0.9995341        117.2951
0.324                   1.000371        116.2224
0.328                   1.001132        115.1396
0.332                   1.001684        114.0501
0.336                   1.001932        112.9601
0.34                    1.001835        111.8774
0.344                   1.001412          110.81
0.348                   1.000741        109.7648
0.352                  0.9999428        108.7462
0.356                  0.9991586        107.7555
0.36                   0.9985276        106.7903
0.364                  0.9981608        105.8453
0.368                  0.9981215        104.9131
0.372                  0.9984141        103.9852
0.376                  0.9989843        103.0539
0.38                   0.9997287        102.1137
0.384                   1.000514        101.1618
0.388                   1.001199        100.1988
0.392                   1.001664        99.22883
0.396                   1.001828        98.25809
0.4                     1.001662        97.29426
0.404                   1.001198        96.34496
0.408                    1.00052        95.41641
0.412                  0.9997471        94.51225
0.416                   0.999019        93.63302
0.42                   0.9984642         92.7759
0.424                  0.9981816        91.93526
0.428                  0.9982205        91.10361
0.432                  0.9985723        90.27297
0.436                   0.999173        89.43624
0.44                   0.9999142        88.58857
0.444                   1.000663        87.72811
0.448                   1.001286        86.85627
0.452                   1.001672         85.9775
0.456                   1.001753        85.09844
0.46                    1.001515        84.22666
0.464                   1.001002        83.36943
0.468                   1.000305        82.53233
0.472                  0.9995478        81.71831
0.476                  0.9988668        80.92712
0.48                   0.9983833        80.15531
0.484                  0.9981837        79.39682
0.488                  0.9983034        78.64406
0.492                  0.9987203        77.88926
0.496                  0.9993591        77.12593
0.5                     1.000105         76.3499
0.504                   1.000824        75.56019
0.508                   1.001387        74.75902
0.512                   1.001695        73.95142
0.516                   1.001691        73.14434
0.52                    1.001377        72.34537
0.524                   1.000809        71.56143
0.528                   1.000088        70.79752
0.532                  0.9993425        70.05581
0.536                  0.9987066        69.33521
0.54                   0.9982945        68.63155
0.544                  0.9981802        67.93826
0.548                  0.9983846        67.24759
0.552                  0.9988706        66.55203
0.556                  0.9995511        65.84555
0.56                    1.000303        65.12484
0.564                   1.000992        64.38973
0.568                   1.001494        63.64331
0.572                   1.001719        62.89127
0.576                   1.001626        62.14088
0.58                    1.001231        61.39977
0.584                   1.000604        60.67449
0.588                  0.9998565         59.9694
0.592                  0.9991223        59.28583
0.596                  0.9985336         58.6218
0.6                    0.9981965        57.97233
0.604                  0.9981719        57.33037
0.608                  0.9984649        56.68799
0.612                  0.9990229        56.03786
0.616                  0.9997454        55.37459
0.62                    1.000503        54.69565
0.624                   1.001158        54.00184
0.628                   1.001593        53.29711
0.632                    1.00173        52.58782
0.636                   1.001542        51.88164
0.64                    1.001062        51.18614
0.644                   1.000374         50.5075
0.648                  0.9996021        49.84935
0.652                  0.9988837        49.21208
0.656                  0.9983485        48.59278
0.66                   0.9980935        47.98565
0.664                  0.9981656        47.38308
0.668                  0.9985525        46.77701
0.672                  0.9991852        46.16038
0.676                  0.9999498        45.52842
0.68                    1.000709        44.87954
0.684                   1.001325        44.21554
0.688                   1.001687        43.54126
0.692                   1.001729        42.86378
0.696                   1.001441         42.1911
0.7                     1.000873        41.53072
0.704                   1.000126        40.88834
0.708                  0.9993337        40.26678
0.712                   0.998638        39.66546
0.716                  0.9981647        39.08044
0.72                   0.9980007        38.50505
0.724                  0.9981767        37.93116
0.728                  0.9986622        37.35061
0.732                  0.9993706        36.75668
0.736                   1.000174        36.14535
0.74                    1.000929        35.51602
0.744                   1.001498        34.87153
0.748                   1.001777        34.21772
0.752                   1.001715        33.56235
0.756                    1.00132         32.9137
0.76                    1.000662        32.27915
0.764                  0.9998568        31.66382
0.768                  0.9990483        31.06965
0.772                  0.9983825        30.49495
0.776                  0.9979801        29.93471
0.78                   0.9979155        29.38139
0.784                   0.998202        28.82636
0.788                  0.9987894         28.2614
0.792                  0.9995726        27.68026
0.796                   1.000411        27.07975
0.8                     1.001152        26.46033
0.804                   1.001662          25.826
0.808                   1.001848        25.18358
0.812                   1.001673         24.5415
0.816                   1.001166        23.90831
0.82                    1.000415        23.29114
0.824                  0.9995531        22.69446
0.828                  0.9987352        22.11919
0.832                  0.9981088        21.56248
0.836                  0.9977884        21.01815
0.84                   0.9978338        20.47779
0.844                  0.9982389         19.9323
0.848                  0.9989323        19.37351
0.852                  0.9997901        18.79569
0.856                   1.000658        18.19662
0.86                    1.001378        17.57792
0.864                    1.00182         16.9448
0.868                   1.001902         16.3051
0.872                   1.001605         15.6679
0.876                    1.00098        15.04194
0.88                    1.000135        14.43406
0.884                  0.9992207        13.84792
0.888                  0.9984014        13.28332
0.892                  0.9978258        12.73614
0.896                  0.9975997          12.199
0.9                    0.9977668         11.6626
0.904                  0.9982996        11.11741
0.908                  0.9991041        10.55537
0.912                   1.000036        9.971413
0.916                   1.000929        9.364379
0.92                    1.001619        8.737174
0.924                   1.001982        8.096273
0.928                   1.001948        7.450562
0.932                   1.001518        6.809778
0.936                   1.000767        6.182792
0.94                   0.9998263        5.576029
0.944                  0.9988621        4.992263
0.948                  0.9980487        4.430039
0.952                  0.9975342        3.883853
0.956                  0.9974146        3.345071
0.96                   0.9977149        2.803477
0.964                  0.9983843        2.249129
0.968                  0.9993045        1.674194
0.972                   1.000311        1.074371
0.976                   1.001222       0.4496689
0.98                    1.001873      -0.1956096
0.984                   1.002143      -0.8536366
0.988                   1.001978       -1.514434
0.992                   1.001404       -2.167617
0.996                   1.000518       -2.804222
1                      0.9994757       -3.418328
1.004                   0.998462       -4.008181
1.008                  0.9976602       -4.576609
1.012                  0.9972173       -5.130623
1.016                  0.9972171        -5.68021
1.02                   0.9976641       -6.236542
1.024                  0.9984815       -6.809934
1.028                   0.999525       -7.407947
1.032                   1.000608       -8.034005
1.036                   1.001535       -8.686793
1.04                    1.002137       -9.360492
1.044                   1.002301       -10.04581
1.048                   1.001992       -10.73161
1.052                   1.001257       -11.40682
1.056                   1.000224        -12.0624
1.06                   0.9990729       -12.69305
1.064                  0.9980082        -13.2981
1.068                  0.9972234       -13.88197
1.072                  0.9968632       -14.45327
1.076                   0.996998       -15.02351
1.08                   0.9976092       -15.60489
1.084                  0.9985915       -16.20811
1.088                  0.9997717       -16.84042
1.092                   1.000939       -17.50426
1.096                   1.001882        -18.1969
1.1                     1.002428       -18.91079
1.104                   1.002474       -19.63506
1.108                   1.002001       -20.35726
1.112                   1.001088       -21.06555
1.116                  0.9998886       -21.75084
1.12                   0.9986139       -22.40839
1.124                  0.9974911       -23.03885
1.128                  0.9967242       -23.64829
1.132                   0.996457       -24.24729
1.136                  0.9967444         -24.849
1.14                   0.9975424       -25.46682
1.144                  0.9987137       -26.11195
1.148                   1.000052       -26.79129
1.152                   1.001318       -27.50625
1.156                   1.002283       -28.25241
1.16                    1.002768        -29.0204
1.164                   1.002678       -29.79744
1.168                   1.002017       -30.56954
1.172                   1.000893       -31.32393
1.176                  0.9994957        -32.0513
1.18                   0.9980697       -32.74758
1.184                  0.9968696       -33.41482
1.188                  0.9961145       -34.06106
1.192                  0.9959479       -34.69905
1.196                  0.9964096       -35.34397
1.2                    0.9974263       -36.01076
1.204                  0.9988234        -36.7113
1.208                   1.000356       -37.45225
1.212                   1.001749       -38.23385
1.216                   1.002751       -39.04987
1.22                    1.003174       -39.88869
1.224                   1.002928       -40.73526
1.228                   1.002042       -41.57365
1.232                   1.000658       -42.38975
1.236                   0.999009       -43.17381
1.24                   0.9973819       -43.92232
1.244                  0.9960673       -44.63889
1.248                  0.9953067       -45.33386
1.252                  0.9952479       -46.02272
1.256                  0.9959154       -46.72332
1.26                   0.9972032       -47.45267
1.264                  0.9988917       -48.22377
1.268                   1.000685       -49.04326
1.272                   1.002263       -49.91019
1.276                   1.003339       -50.81618
1.28                    1.003705       -51.74685
1.284                   1.003278       -52.68415
1.288                   1.002109       -53.60942
1.292                   1.000383       -54.50653
1.296                  0.9983866       -55.36473
1.3                    0.9964659       -56.18081
1.304                  0.9949633       -56.96011
1.308                   0.994158       -57.71585
1.312                  0.9942114       -58.46716
1.316                  0.9951355        -59.2357
1.32                   0.9967855       -60.04169
1.324                   0.998883       -60.90014
1.328                   1.001063       -61.81821
1.332                   1.002936       -62.79374
1.336                   1.004158       -63.81575
1.34                    1.004489       -64.86608
1.344                   1.003837       -65.92245
1.348                   1.002277       -66.96199
1.352                   1.000047       -67.96499
1.356                  0.9975127       -68.91856
1.36                   0.9951063       -69.81917
1.364                  0.9932569       -70.67394
1.368                  0.9923116       -71.50004
1.372                  0.9924686       -72.32204
1.376                  0.9937355       -73.16765
1.38                   0.9959203        -74.0627
1.384                  0.9986601        -75.0263
1.388                   1.001481       -76.06731
1.392                   1.003879       -77.18268
1.396                   1.005405       -78.35797
1.4                     1.005744       -79.56951
1.404                    1.00477       -80.78803
1.408                    1.00258       -81.98323
1.412                  0.9994838       -83.12852
1.416                  0.9959664       -84.20589
1.42                   0.9926148       -85.20961
1.424                  0.9900221       -86.14852
1.428                  0.9886806       -87.04562
1.432                  0.9888864       -87.93501
1.436                  0.9906718       -88.85613
1.44                   0.9937863       -89.84656
1.444                   0.997727       -90.93503
1.448                   1.001817       -92.13604
1.452                   1.005316        -93.4472
1.456                   1.007542       -94.84943
1.46                    1.007984       -96.30963
1.464                   1.006394        -97.7852
1.468                   1.002848        -99.2299
1.472                   0.997752       -100.6006
1.476                  0.9918152       -101.8645
1.48                   0.9859575       -103.0061
1.484                  0.9811771       -104.0332
1.488                  0.9783808        -104.979
1.492                  0.9782049       -105.8996
1.496                  0.9808653       -106.8667
1.5                    0.9860701       -107.9551
1.504                  0.9930197       -109.2294
1.508                   1.000495       -110.7328
1.512                   1.007011       -112.4802
1.516                      1.011       -114.4568
1.52                    1.011007       -116.6198
1.524                    1.00585        -118.902
1.528                   0.994765       -121.2164
1.532                  0.9775163       -123.4591
1.536                  0.9544732       -125.5139
1.54                   0.9266617       -127.2562
1.544                  0.8957758       -128.5624
1.548                  0.8641346        -129.324
1.552                  0.8345492       -129.4715
1.556                  0.8100553       -129.0052
1.56                   0.7934895        -128.025
1.564                  0.7869525       -126.7377
1.568                  0.7913215       -125.4258
1.572                  0.8060214       -124.3792
1.576                    0.82918       -123.8246
1.58                   0.8580802       -123.8844
1.584                  0.8897033       -124.5779
1.588                  0.9211795        -125.848
1.592                  0.9500853        -127.593
1.596                  0.9745969        -129.692
1.6                    0.9935448       -132.0214
1.604                    1.00641       -134.4643
1.608                   1.013279       -136.9155
1.612                   1.014769       -139.2853
1.616                   1.011932       -141.5025
1.62                     1.00612       -143.5185
1.624                  0.9988386         -145.31
1.628                  0.9915667       -146.8822
1.632                  0.9855817       -148.2676
1.636                  0.9818046       -149.5213
1.64                   0.9806961       -150.7121
1.644                  0.9822294       -151.9102
1.648                  0.9859457       -153.1752
1.652                  0.9910758       -154.5476
1.656                  0.9967002       -156.0444
1.66                    1.001911       -157.6599
1.664                   1.005951       -159.3697
1.668                    1.00831       -161.1372
1.672                   1.008777         -162.92
1.676                   1.007444       -164.6763
1.68                    1.004671       -166.3709
1.684                   1.001016       -167.9793
1.688                  0.9971407       -169.4912
1.692                  0.9937006       -170.9118
1.696                  0.9912449       -172.2603
1.7                      0.99013       -173.5665
1.704                  0.9904702       -174.8653
1.708                  0.9921321       -176.1904
1.712                  0.9947713       -177.5684
1.716                  0.9979038       -179.0146
1.72                    1.000994        179.4681
1.724                   1.003547        177.8896
1.728                    1.00518        176.2688
1.732                   1.005682        174.6313
1.736                   1.005029         173.004
1.74                    1.003387        171.4118
1.744                    1.00107        169.8737
1.748                  0.9984909        168.3999
1.752                   0.996087        166.9906
1.756                  0.9942516        165.6361
1.76                   0.9932685        164.3186
1.764                  0.9932681        163.0154
1.768                  0.9942112        161.7031
1.772                  0.9959019         160.362
1.776                  0.9980284        158.9787
1.78                    1.000219        157.5487
1.784                    1.00211        156.0764
1.788                   1.003398        154.5737
1.792                   1.003896        153.0579
1.796                   1.003548        151.5489
1.8                     1.002443        150.0656
1.804                   1.000789        148.6233
1.808                  0.9988773        147.2313
1.812                  0.9970361        145.8913
1.816                   0.995571        144.5975
1.82                   0.9947164        143.3377
1.824                  0.9945962        142.0951
1.828                  0.9952067        140.8521
1.832                  0.9964196        139.5925
1.836                  0.9980098        138.3052
1.84                   0.9996958        136.9852
1.844                   1.001189        135.6346
1.848                   1.002244        134.2617
1.852                   1.002694        132.8796
1.856                   1.002481        131.5037
1.86                    1.001658        130.1492
1.864                   1.000378        128.8287
1.868                  0.9988674        127.5503
1.872                  0.9973875         126.316
1.876                  0.9961874        125.1218
1.88                   0.9954631        123.9582
1.884                  0.9953246        122.8119
1.888                  0.9957786        121.6686
1.892                  0.9967299        120.5149
1.896                  0.9980007        119.3413
1.9                    0.9993629        118.1431
1.904                    1.00058        116.9217
1.908                   1.001445        115.6834
1.912                   1.001818        114.4389
1.916                   1.001646        113.2007
1.92                    1.000968        111.9815
1.924                  0.9999102        110.7918
1.928                  0.9986601        109.6383
1.932                  0.9974347        108.5229
1.936                  0.9964426         107.442
1.94                   0.9958482        106.3877
1.944                  0.9957434        105.3487
1.948                  0.9961329         104.313
1.952                  0.9969355        103.2694
1.956                  0.9979999        102.2098
1.96                   0.9991329        101.1303
1.964                   1.000134        100.0322
1.968                    1.00083          98.921
1.972                   1.001105        97.80575
1.976                   1.000917        96.69724
1.98                    1.000305        95.60616
1.984                  0.9993815        94.54132
1.988                  0.9983096        93.50809
1.992                   0.997276        92.50755
1.996                  0.9964574        91.53633
2                      0.9959898        90.58721
2.004                  0.9959446        89.65042
2.008                  0.9963182        88.71541
2.012                  0.9970327         87.7728
2.016                  0.9979521        86.81595
2.02                   0.9989074        85.84209
2.024                  0.9997266        84.85268
2.028                   1.000265        83.85298
2.032                   1.000431        82.85112
2.036                   1.000198        81.85651
2.04                   0.9996118        80.87827
2.044                  0.9987768        79.92359
2.048                  0.9978406        78.99658
2.052                   0.996966        78.09746
2.056                  0.9963022        77.22259
2.06                   0.9959585        76.36521
2.064                  0.9959853        75.51652
2.068                  0.9963663        74.66742
2.072                   0.997023        73.81007
2.076                  0.9978286         72.9393
2.08                   0.9986336        72.05341
2.084                  0.9992907         71.1544
2.088                  0.9996823        70.24749
2.092                  0.9997399        69.34008
2.096                  0.9994548        68.44047
2.1                    0.9988794        67.55632
2.104                  0.9981156        66.69336
2.108                  0.9972976        65.85436
2.112                  0.9965663        65.03866
2.116                  0.9960448        64.24234
2.12                   0.9958165        63.45893
2.124                  0.9959108        62.68057
2.128                  0.9962988        61.89951
2.132                  0.9968994        61.10945
2.136                  0.9975959        60.30662
2.14                   0.9982563        59.49043
2.144                  0.9987587        58.66339
2.148                  0.9990111        57.83064
2.152                  0.9989684        56.99889
2.156                  0.9986382         56.1753
2.16                   0.9980791        55.36607
2.164                  0.9973886        54.57542
2.168                  0.9966851        53.80491
2.172                  0.9960869        53.05311
2.176                  0.9956905        52.31592
2.18                   0.9955539        51.58739
2.184                  0.9956873        50.86073
2.188                  0.9960518        50.12969
2.192                  0.9965689        49.38947
2.196                  0.9971347        48.63772
2.2                    0.9976398        47.87471
2.204                  0.9979888        47.10326
2.208                  0.9981164        46.32811
2.212                  0.9979988        45.55499
2.216                  0.9976558        44.78958
2.22                   0.9971455         44.0365
2.224                  0.9965535        43.29852
2.228                  0.9959762         42.5761
2.232                  0.9955034        41.86742
2.236                  0.9952027        41.16873
2.24                   0.9951082        40.47507
2.244                  0.9952161        39.78127
2.248                  0.9954873        39.08279
2.252                  0.9958558        38.37654
2.256                  0.9962428        37.66128
2.26                   0.9965707        36.93771
2.264                  0.9967763        36.20825
2.268                  0.9968217         35.4764
2.272                  0.9966981        34.74607
2.276                  0.9964254        34.02086
2.28                   0.9960458        33.30344
2.284                  0.9956141        32.59517
2.288                  0.9951877        31.89598
2.292                  0.9948154        31.20455
2.296                  0.9945311        30.51867
2.3                    0.9943492        29.83572
2.304                  0.9942666        29.15321
2.308                  0.9942662        28.46911
2.312                  0.9943233        27.78205
2.316                  0.9944113        27.09139
2.32                   0.9945077        26.39696
2.324                  0.9945957        25.69885
2.328                  0.9946629        24.99714
2.332                  0.9946987        24.29176
2.336                    0.99469        23.58248
2.34                   0.9946175        22.86911
2.344                  0.9944549        22.15178
2.348                  0.9941713        21.43132
2.352                  0.9937386        20.70949