! TOUCHSTONE file generated by CST MICROWAVE STUDIO
! Date and time: Tue Jun  7 20:32:32 2022
! Project name: AppElm_antenne_patch_FR4.cst
! Parameters = {L=45; W=58.5; e=0.035; h=1.6; lambda=0.190476; ls=120; w0=1.6; w1=0.533333; ws=120; y0=21; y1=23.8095}
! Header version: 2018
! Port assignment regex: !\s*Touchstone port\s*([0-9]+)\s*=\s*(CST MWS port|CST DS port)\s*([0-9]+|Zmin|Zmax)\s*\(\"(.*)\"\)(\s*mode\s*([0-9]+))?.*
! Touchstone port assignment:
! Touchstone port 1 = CST MWS port 1 ("")
# GHz S MA R 50
0                      0.9894859              -0
0.004                  0.9901168       -9.932422
0.008                  0.9919224       -19.77806
0.012                  0.9946544       -29.45434
0.016                  0.9979418       -38.88643
0.02                    1.001345       -48.00968
0.024                   1.004422       -56.77076
0.028                   1.006784       -65.12788
0.032                   1.008151       -73.05033
0.036                   1.008384        -80.5178
0.04                    1.007499       -87.51988
0.044                   1.005662       -94.05581
0.048                   1.003163       -100.1344
0.052                   1.000375       -105.7739
0.056                  0.9976971       -111.0021
0.06                   0.9955013       -115.8546
0.064                  0.9940763       -120.3735
0.068                  0.9935879       -124.6042
0.072                  0.9940573       -128.5922
0.076                  0.9953624       -132.3796
0.08                   0.9972637       -136.0017
0.084                   0.999445       -139.4852
0.088                   1.001565       -142.8473
0.092                   1.003308       -146.0964
0.096                   1.004434       -149.2332
0.1                     1.004804       -152.2534
0.104                   1.004402       -155.1503
0.108                   1.003329       -157.9175
0.112                   1.001784        -160.551
0.116                    1.00003       -163.0516
0.12                   0.9983546       -165.4256
0.124                  0.9970198       -167.6852
0.128                  0.9962255       -169.8471
0.132                   0.996077        -171.931
0.136                  0.9965722       -173.9571
0.14                    0.997605       -175.9436
0.144                   0.998987       -177.9044
0.148                   1.000481       -179.8479
0.152                   1.001841        178.2238
0.156                   1.002851        176.3139
0.16                    1.003362        174.4304
0.164                   1.003308        172.5833
0.168                   1.002717        170.7833
0.172                   1.001703        169.0394
0.176                   1.000446        167.3573
0.18                   0.9991599        165.7379
0.184                  0.9980585        164.1775
0.188                  0.9973195        162.6675
0.192                  0.9970552        161.1963
0.196                  0.9972968        159.7506
0.2                    0.9979895        158.3176
0.204                  0.9990045        156.8873
0.208                   1.000163        155.4531
0.212                   1.001267        154.0137
0.216                   1.002133        152.5718
0.22                    1.002621        151.1345
0.224                   1.002659        149.7108
0.228                   1.002249        148.3109
0.232                    1.00147        146.9437
0.236                   1.000459        145.6155
0.24                   0.9993922        144.3292
0.244                  0.9984501        143.0831
0.248                  0.9977901        141.8716
0.252                  0.9975194        140.6859
0.256                  0.9976767        139.5154
0.26                   0.9982274        138.3499
0.264                  0.9990702        137.1805
0.268                   1.000056        136.0018
0.272                   1.001015        134.8124
0.276                   1.001782        133.6147
0.28                    1.002231        132.4146
0.284                   1.002289        131.2207
0.288                   1.001952        130.0419
0.292                   1.001281        128.8868
0.296                   1.000397        127.7616
0.3                    0.9994515        126.6693
0.304                  0.9986082        125.6091
0.308                  0.9980112        124.5765
0.312                  0.9977604        123.5638
0.316                  0.9978954        122.5619
0.32                   0.9983884        121.5614
0.324                  0.9991502        120.5546
0.328                   1.000047        119.5365
0.332                   1.000921        118.5056
0.336                   1.001623        117.4643
0.34                    1.002033        116.4182
0.344                   1.002082        115.3751
0.348                   1.001766        114.3436
0.352                   1.001142        113.3316
0.356                   1.000319        112.3454
0.36                   0.9994413        111.3876
0.364                  0.9986622        110.4577
0.368                  0.9981166        109.5514
0.372                  0.9978985        108.6617
0.376                  0.9980444        107.7799
0.38                    0.998527        106.8973
0.384                    0.99926        106.0066
0.388                   1.000115        105.1033
0.392                   1.000941         104.186
0.396                   1.001595        103.2573
0.4                     1.001965        102.3227
0.404                   1.001986        101.3898
0.408                   1.001656         100.467
0.412                   1.001034        99.56211
0.416                   1.000229        98.68075
0.42                   0.9993809        97.82564
0.424                  0.9986392        96.99594
0.428                  0.9981336        96.18735
0.432                  0.9979527        95.39292
0.436                  0.9981277        94.60414
0.44                   0.9986271        93.81252
0.444                  0.9993626        93.01112
0.448                   1.000204        92.19568
0.452                   1.001004        91.36537
0.456                   1.001621        90.52291
0.46                    1.001948        89.67405
0.464                   1.001928        88.82651
0.468                   1.001563        87.98866
0.472                   1.000917        87.16811
0.476                   1.000104        86.37027
0.48                   0.9992663         85.5975
0.484                  0.9985518        84.84859
0.488                  0.9980869        84.11891
0.492                  0.9979544        83.40122
0.496                  0.9981782        82.68696
0.5                    0.9987191        81.96767
0.504                  0.9994818        81.23669
0.508                   1.000331        80.49013
0.512                   1.001117        79.72766
0.516                   1.001701         78.9525
0.52                    1.001979        78.17084
0.524                     1.0019         77.3907
0.528                   1.001477        76.62061
0.532                   1.000783         75.8681
0.536                  0.9999394         75.1383
0.54                   0.9990944        74.43314
0.544                  0.9983975        73.75083
0.548                  0.9979729        73.08616
0.552                  0.9978968        72.43146
0.556                   0.998184        71.77781
0.56                   0.9987843        71.11678
0.564                  0.9995917        70.44187
0.568                   1.000463        69.74968
0.572                   1.001243        69.04049
0.576                   1.001793        68.31818
0.58                    1.002014        67.58959
0.584                   1.001865        66.86324
0.588                    1.00137        66.14786
0.592                   1.000614        65.45093
0.596                  0.9997297        64.77727
0.6                    0.9988742        64.12818
0.604                  0.9981995        63.50115
0.608                  0.9978277        62.89021
0.612                  0.9978268          62.287
0.616                  0.9981994        61.68222
0.62                   0.9988809        61.06731
0.624                  0.9997514        60.43604
0.628                   1.000656        59.78558
0.632                   1.001434        59.11699
0.636                   1.001945        58.43506
0.64                    1.002096        57.74741
0.644                   1.001858        57.06319
0.648                    1.00127        56.39146
0.652                   1.000433        55.73964
0.656                  0.9994941        55.11212
0.66                   0.9986197        54.50949
0.664                   0.997967        53.92829
0.668                  0.9976544        53.36158
0.672                  0.9977404        52.80018
0.676                  0.9982123        52.23427
0.68                   0.9989882         51.6552
0.684                  0.9999304        51.05705
0.688                   1.000871        50.43769
0.692                   1.001642        49.79916
0.696                   1.002103        49.14731
0.7                     1.002169        48.49073
0.704                   1.001825        47.83928
0.708                   1.001127        47.20237
0.712                   1.000197         46.5873
0.716                  0.9991981        45.99791
0.72                   0.9983095        45.43384
0.724                  0.9976914        44.89048
0.728                  0.9974578        44.35976
0.732                  0.9976544        43.83151
0.736                  0.9982498        43.29533
0.74                   0.9991399         42.7425
0.744                   1.000168        42.16753
0.748                   1.001149        41.56923
0.752                   1.001907        40.95082
0.756                   1.002304        40.31939
0.76                    1.002264         39.6847
0.764                    1.00179        39.05742
0.768                    1.00096        38.44731
0.772                  0.9999195        37.86147
0.776                  0.9988513        37.30303
0.78                    0.997947         36.7705
0.784                  0.9973706        36.25789
0.788                  0.9972294        35.75574
0.792                   0.997553        35.25282
0.796                  0.9982873        34.73812
0.8                    0.9993031         34.2029
0.804                   1.000419        33.64232
0.808                   1.001436        33.05624
0.812                   1.002168        32.44933
0.816                    1.00248        31.83015
0.82                     1.00231        31.20974
0.824                   1.001683        30.59964
0.828                   1.000704        30.00992
0.832                  0.9995435        29.44735
0.836                  0.9984077        28.91411
0.84                   0.9975013        28.40729
0.844                  0.9969906        27.91926
0.848                  0.9969729        27.43899
0.852                  0.9974573        26.95401
0.856                  0.9983617        26.45272
0.86                   0.9995273        25.92648
0.864                   1.000746        25.37128
0.868                   1.001799        24.78835
0.872                   1.002494        24.18406
0.876                   1.002702        23.56869
0.88                    1.002377        22.95472
0.884                    1.00157        22.35465
0.888                   1.000419         21.7788
0.892                  0.9991245        21.23346
0.896                   0.997917        20.71963
0.9                    0.9970157        20.23267
0.904                  0.9965875        19.76305
0.908                  0.9967162        19.29793
0.912                   0.997385        18.82352
0.916                  0.9984794        18.32762
0.92                   0.9998057         17.8019
0.924                   1.001126        17.24338
0.928                   1.002203        16.65502
0.932                   1.002836        16.04515
0.936                   1.002906        15.42601
0.94                     1.00239        14.81172
0.944                   1.001371        14.21572
0.948                   1.000023        13.64852
0.952                  0.9985826        13.11568
0.956                  0.9973082        12.61667
0.96                   0.9964329        12.14479
0.964                  0.9961216        11.68818
0.968                  0.9964392        11.23196
0.972                  0.9973375        10.76087
0.976                  0.9986616        10.26217
0.98                    1.000178        9.727995
0.984                   1.001614        9.156758
0.988                   1.002711        8.553465
0.992                   1.003264        7.928811
0.996                   1.003166         7.29734
1                       1.002421        6.674956
1.004                   1.001153        6.076184
1.008                  0.9995776        5.511588
1.012                  0.9979736        4.985774
1.016                  0.9966296        4.496341
1.02                   0.9957931        4.034078
1.024                  0.9956244        3.584453
1.028                  0.9961643        3.130197
1.032                  0.9973255        2.654492
1.036                  0.9989059        2.144121
1.04                    1.000624        1.591921
1.044                   1.002171       0.9980843
1.048                   1.003263       0.3701129
1.052                   1.003695      -0.2784947
1.056                   1.003374      -0.9305505
1.06                    1.002343       -1.568094
1.064                    1.00077       -2.175487
1.068                  0.9989269       -2.742224
1.072                   0.997138       -3.264998
1.076                  0.9957275       -3.748584
1.08                   0.9949584       -4.205287
1.084                   0.994982       -4.652902
1.088                  0.9958083       -5.111501
1.092                  0.9973006         -5.5997
1.096                  0.9991993       -6.131178
1.1                     1.001167       -6.712045
1.104                   1.002848        -7.33993
1.108                   1.003934       -8.004288
1.112                   1.004217       -8.688182
1.116                   1.003628       -9.371282
1.12                    1.002253       -10.03324
1.124                   1.000319       -10.65711
1.128                  0.9981586       -11.23252
1.132                  0.9961563       -11.75783
1.136                  0.9946768       -12.24077
1.14                   0.9939992       -12.69743
1.144                  0.9942632       -13.14956
1.148                  0.9954382       -13.62058
1.152                  0.9973272       -14.13117
1.156                  0.9995991       -14.69539
1.16                    1.001848       -15.31804
1.164                   1.003665       -15.99389
1.168                   1.004713       -16.70854
1.172                   1.004782       -17.44097
1.176                   1.003834       -18.16697
1.18                    1.002009       -18.86319
1.184                  0.9996093       -19.51116
1.188                  0.9970472       -20.10078
1.192                  0.9947788        -20.6325
1.196                   0.993221       -21.11787
1.2                    0.9926734       -21.57787
1.204                  0.9932591       -22.03935
1.208                   0.994896       -22.53003
1.212                  0.9973089       -23.07322
1.216                   1.000075       -23.68346
1.22                    1.002702       -24.36381
1.224                   1.004711       -25.10544
1.228                   1.005725       -25.88913
1.232                   1.005534       -26.68855
1.236                   1.004136        -27.4745
1.24                    1.001741       -28.21976
1.244                  0.9987449       -28.90374
1.248                  0.9956644       -29.51651
1.252                  0.9930506       -30.06118
1.256                  0.9913894       -30.55422
1.26                   0.9910087       -31.02305
1.264                  0.9920114       -31.50126
1.268                  0.9942483        -32.0223
1.272                  0.9973407       -32.61304
1.276                   1.000746       -33.28865
1.28                    1.003852       -34.04996
1.284                   1.006088       -34.88338
1.288                   1.007021       -35.76329
1.292                   1.006437       -36.65619
1.296                    1.00438       -37.52605
1.3                     1.001153       -38.34008
1.304                  0.9972825       -39.07445
1.308                  0.9934296       -39.71903
1.312                  0.9902832       -40.28036
1.316                  0.9884337       -40.78167
1.32                   0.9882573       -41.25961
1.324                  0.9898357       -41.75767
1.328                  0.9929296       -42.31793
1.332                  0.9970158       -42.97284
1.336                   1.001377       -43.73905
1.34                    1.005229       -44.61464
1.344                   1.007855       -45.57964
1.348                   1.008735       -46.59947
1.352                    1.00763       -47.63038
1.356                   1.004638       -48.62608
1.36                    1.000193       -49.54495
1.364                  0.9950017       -50.35735
1.368                  0.9899475       -51.05175
1.372                  0.9859362       -51.63886
1.376                  0.9837331       -52.15172
1.38                   0.9838074       -52.64123
1.384                  0.9862261       -53.16689
1.388                  0.9906229       -53.78523
1.392                  0.9962532       -54.53855
1.396                   1.002123       -55.44694
1.4                     1.007162       -56.50519
1.404                   1.010406       -57.68411
1.408                    1.01116       -58.93546
1.412                   1.009118       -60.19897
1.416                   1.004435       -61.41083
1.42                   0.9977264       -62.51304
1.424                  0.9900012       -63.46326
1.428                   0.982526       -64.24427
1.432                  0.9766198       -64.87109
1.436                   0.973412       -65.39262
1.44                   0.9736051       -65.88598
1.444                  0.9773028       -66.44265
1.448                   0.983953       -67.14998
1.452                  0.9924251       -68.07336
1.456                   1.001203       -69.24417
1.46                    1.008641       -70.65567
1.464                   1.013233       -72.26573
1.468                   1.013851       -74.00396
1.472                   1.009932       -75.78079
1.476                   1.001594       -77.49793
1.48                   0.9896862       -79.06035
1.484                  0.9757406       -80.39093
1.488                  0.9618171       -81.44786
1.492                  0.9502172         -82.243
1.496                  0.9430758       -82.85447
1.5                    0.9418873        -83.4251
1.504                  0.9470896       -84.14081
1.508                  0.9578435       -85.19281
1.512                  0.9720894       -86.73841
1.516                  0.9868465       -88.87558
1.52                   0.9986361       -91.63742
1.524                   1.003906       -95.00152
1.528                  0.9993741       -98.90503
1.532                  0.9822814       -103.2579
1.536                  0.9505504       -107.9505
1.54                   0.9028861       -112.8536
1.544                  0.8388339       -117.8091
1.548                  0.7588249       -122.6057
1.552                  0.6642419       -126.9249
1.556                  0.5576005       -130.2161
1.56                   0.4431138       -131.3766
1.564                  0.3286374       -127.8574
1.568                  0.2328122        -113.537
1.572                  0.2002933       -82.91121
1.576                  0.2591229       -56.80879
1.58                   0.3643209       -46.89707
1.584                  0.4802826       -45.33988
1.588                  0.5931731        -47.4159
1.592                  0.6966491       -51.19609
1.596                  0.7871048       -55.80937
1.6                    0.8623723       -60.79958
1.604                  0.9213347       -65.89043
1.608                  0.9638015       -70.89052
1.612                  0.9904584       -75.65102
1.616                   1.002829       -80.04694
1.62                    1.003212       -83.97079
1.624                  0.9945761       -87.33502
1.628                  0.9803797       -90.08201
1.632                  0.9642979       -92.19964
1.636                  0.9498426       -93.73744
1.64                   0.9399067       -94.81465
1.644                  0.9363304       -95.60993
1.648                  0.9396291       -96.32938
1.652                      0.949       -97.16259
1.656                  0.9626172       -98.24492
1.66                    0.978102       -99.63993
1.664                  0.9930143       -101.3428
1.668                   1.005254       -103.2969
1.672                   1.013323       -105.4131
1.676                    1.01646       -107.5874
1.68                    1.014671        -109.715
1.684                   1.008669       -111.7013
1.688                  0.9997452       -113.4731
1.692                  0.9895786       -114.9873
1.696                  0.9799788       -116.2393
1.7                    0.9726008       -117.2665
1.704                  0.9686658       -118.1437
1.708                  0.9687518       -118.9701
1.712                  0.9727079       -119.8488
1.716                  0.9797198       -120.8662
1.72                   0.9885012       -122.0764
1.724                  0.9975576       -123.4955
1.728                    1.00545       -125.1034
1.732                   1.011019       -126.8525
1.736                   1.013535       -128.6772
1.74                    1.012774       -130.5054
1.744                   1.009027        -132.267
1.748                   1.003037       -133.9039
1.752                  0.9958768       -135.3775
1.756                  0.9887863       -136.6754
1.76                   0.9829682        -137.814
1.764                  0.9793877       -138.8374
1.768                   0.978604       -139.8096
1.772                  0.9806795       -140.8026
1.776                  0.9851817       -141.8818
1.78                   0.9912832       -143.0941
1.784                  0.9979264       -144.4611
1.788                   1.004016       -145.9772
1.792                   1.008597       -147.6138
1.796                   1.010997       -149.3251
1.8                     1.010913       -151.0565
1.804                    1.00844       -152.7521
1.808                   1.004048        -154.363
1.812                  0.9985061       -155.8534
1.816                  0.9927559       -157.2072
1.82                   0.9877642       -158.4306
1.824                  0.9843595       -159.5519
1.828                  0.9830902       -160.6176
1.832                  0.9841298        -161.683
1.836                  0.9872533       -162.8023
1.84                   0.9918886       -164.0184
1.844                  0.9972289       -165.3554
1.848                    1.00238       -166.8161
1.852                   1.006512       -168.3829
1.856                   1.008986       -170.0223
1.86                    1.009448       -171.6906
1.864                   1.007872       -173.3408
1.868                   1.004557       -174.9294
1.872                   1.000077       -176.4225
1.876                   0.995189        -177.801
1.88                   0.9907137       -179.0645
1.884                  0.9873966        179.7684
1.888                  0.9857821        178.6628
1.892                  0.9861188        177.5734
1.896                  0.9883182        176.4532
1.9                    0.9919767        175.2622
1.904                  0.9964548        173.9744
1.908                   1.000994        172.5814
1.912                   1.004847        171.0931
1.916                   1.007398        169.5347
1.92                    1.008257        167.9422
1.924                   1.007312        166.3564
1.928                   1.004743        164.8172
1.932                   1.000989        163.3576
1.936                  0.9966824        161.9984
1.94                   0.9925421        160.7451
1.944                  0.9892595        159.5856
1.948                   0.987379        158.4929
1.952                  0.9872031        157.4285
1.956                  0.9887399        156.3505
1.96                    0.991706        155.2206
1.964                  0.9955799        154.0114
1.968                  0.9996996        152.7105
1.972                   1.003377        151.3221
1.976                   1.006011        149.8653
1.98                    1.007184        148.3703
1.984                    1.00672        146.8737
1.988                   1.004712        145.4127
1.992                     1.0015        144.0196
1.996                  0.9976238        142.7168
2                      0.9937324         141.513
2.004                  0.9904776        140.4014
2.008                  0.9884043        139.3602
2.012                  0.9878549        138.3562
2.016                  0.9889083        137.3508
2.02                   0.9913683        136.3071
2.024                  0.9948008        135.1965
2.028                  0.9986145        134.0038
2.032                   1.002164        132.7289
2.036                   1.004859        131.3863
2.04                    1.006259        130.0021
2.044                   1.006141        128.6097
2.048                   1.004531        127.2442
2.052                   1.001698        125.9376
2.056                  0.9981159        124.7137
2.06                   0.9943812        123.5837
2.064                    0.99112        122.5446
2.068                  0.9888807        121.5784
2.072                   0.988038        120.6558
2.076                  0.9887258        119.7404
2.08                   0.9908134        118.7961
2.084                  0.9939314        117.7935
2.088                  0.9975387        116.7146
2.092                   1.001019        115.5562
2.096                   1.003786        114.3293
2.1                     1.005377        113.0568
2.104                    1.00553        111.7698
2.108                   1.004217        110.5024
2.112                   1.001654        109.2865
2.116                   0.998263        108.1471
2.12                   0.9946062        107.0979
2.124                  0.9912959        106.1387
2.128                  0.9888897        105.2547
2.132                  0.9877934        104.4191
2.136                  0.9881884        103.5972
2.14                   0.9899977        102.7529
2.144                  0.9929008        101.8555
2.148                  0.9963924        100.8849
2.152                  0.9998712        99.83475
2.156                   1.002744        98.71321
2.16                    1.004521        97.54093
2.164                   1.004899        96.34742
2.168                   1.003803        95.16637
2.172                     1.0014         94.0306
2.176                  0.9980759         92.9667
2.18                    0.994372        91.99099
2.184                  0.9909015        91.10611
2.188                  0.9882458        90.30016
2.192                   0.986853        89.54811
2.196                  0.9869578        88.81591
2.2                    0.9885374        88.06662
2.204                  0.9913144        87.26721
2.208                   0.994806        86.39439
2.212                  0.9984103        85.43855
2.216                   1.001507        84.40481
2.22                    1.003562        83.31176
2.224                   1.004212        82.18814
2.228                   1.003321        81.06823
2.232                   1.001005        79.98677
2.236                  0.9976132        78.97355
2.24                   0.9936811        78.04872
2.244                  0.9898433        77.21885
2.248                  0.9867327        76.47534
2.252                  0.9848713        75.79486
2.256                  0.9845767        75.14294
2.26                   0.9859008           74.48
2.264                  0.9886177        73.76843
2.268                  0.9922601        72.97943
2.272                  0.9962002         72.0979
2.276                  0.9997544        71.12461
2.28                    1.002295        70.07565
2.284                   1.003351        68.97951
2.288                   1.002682        67.87272
2.292                   1.000319        66.79453
2.296                  0.9965649        65.78121
2.3                    0.9919591        64.86039
2.304                  0.9871989        64.04615
2.308                   0.983035        63.33559
2.312                  0.9801475        62.70787
2.316                  0.9790251        62.12655
2.32                   0.9798716        61.54515
2.324                  0.9825585        60.91528
2.328                  0.9866357        60.19532
2.332                  0.9914018        59.35771
2.336                  0.9960142        58.39334
2.34                   0.9996212        57.31261
2.344                   1.001493        56.14356
2.348                   1.001134         54.9278
2.352                  0.9983619        53.71503