! TOUCHSTONE file generated by CST MICROWAVE STUDIO
! Date and time: Tue Jun  7 20:32:29 2022
! Project name: AppElm_antenne_patch_FR4.cst
! Parameters = {L=45; W=58.5; e=0.035; h=1.6; lambda=0.190476; ls=120; w0=1.6; w1=0.533333; ws=120; y0=18; y1=23.8095}
! Header version: 2018
! Port assignment regex: !\s*Touchstone port\s*([0-9]+)\s*=\s*(CST MWS port|CST DS port)\s*([0-9]+|Zmin|Zmax)\s*\(\"(.*)\"\)(\s*mode\s*([0-9]+))?.*
! Touchstone port assignment:
! Touchstone port 1 = CST MWS port 1 ("")
# GHz S MA R 50
0                      0.9792297              -0
0.004                  0.9798783       -9.928181
0.008                  0.9817353       -19.76849
0.012                  0.9845464       -29.43739
0.016                  0.9879321       -38.85925
0.02                   0.9914429       -47.96886
0.024                  0.9946246       -56.71257
0.028                  0.9970793       -65.04838
0.032                  0.9985174       -72.94549
0.036                   0.998793       -80.38354
0.04                   0.9979186       -87.35206
0.044                  0.9960597       -93.85022
0.048                  0.9935092       -99.88675
0.052                  0.9906453       -105.4801
0.056                  0.9878774       -110.6578
0.06                   0.9855875       -115.4562
0.064                  0.9840763       -119.9176
0.068                  0.9835195       -124.0885
0.072                  0.9839461       -128.0153
0.076                  0.9852394       -131.7409
0.08                   0.9871602       -135.3018
0.084                  0.9893884       -138.7255
0.088                  0.9915757       -142.0298
0.092                  0.9933983       -145.2233
0.096                  0.9946032       -148.3069
0.1                    0.9950431       -151.2761
0.104                  0.9946918       -154.1236
0.108                  0.9936433       -156.8423
0.112                  0.9920938       -159.4277
0.116                  0.9903081       -161.8799
0.12                   0.9885774       -164.2046
0.124                  0.9871729       -166.4136
0.128                  0.9863047       -168.5235
0.132                  0.9860892       -170.5543
0.136                  0.9865342       -172.5264
0.14                   0.9875414       -174.4588
0.144                  0.9889256       -176.3662
0.148                  0.9904489       -178.2574
0.152                  0.9918608        179.8646
0.156                   0.992938         178.003
0.16                   0.9935197        176.1653
0.164                  0.9935299        174.3621
0.168                  0.9929867        172.6042
0.172                  0.9919968        170.9013
0.176                   0.990736        169.2597
0.18                   0.9894189         167.681
0.184                  0.9882641         166.162
0.188                  0.9874574        164.6946
0.192                  0.9871223        163.2672
0.196                  0.9873011        161.8664
0.2                    0.9879492         160.479
0.204                  0.9889453        159.0943
0.208                  0.9901131        157.7051
0.212                  0.9912535        156.3093
0.216                  0.9921767        154.9092
0.22                   0.9927345        153.5115
0.224                  0.9928422        152.1254
0.228                  0.9924919         150.761
0.232                  0.9917514        149.4278
0.236                  0.9907528        148.1328
0.24                   0.9896683        146.8795
0.244                  0.9886816        145.6668
0.248                   0.987957        144.4897
0.252                  0.9876124        143.3398
0.256                  0.9876984        142.2064
0.26                   0.9881922        141.0789
0.264                  0.9890021        139.9481
0.268                  0.9899846        138.8078
0.272                  0.9909694        137.6558
0.276                  0.9917893        136.4939
0.28                    0.992308        135.3277
0.284                  0.9924415        134.1653
0.288                  0.9921733         133.016
0.292                  0.9915539        131.8886
0.296                  0.9906929          130.79
0.3                    0.9897406         129.724
0.304                  0.9888601        128.6904
0.308                  0.9882013        127.6852
0.312                   0.987875        126.7015
0.316                   0.987933          125.73
0.32                   0.9883614        124.7613
0.324                  0.9890816         123.787
0.328                  0.9899668        122.8015
0.332                  0.9908629        121.8026
0.336                  0.9916155        120.7918
0.34                   0.9920975        119.7743
0.344                  0.9922283        118.7575
0.348                  0.9919886        117.7501
0.352                  0.9914227        116.7605
0.356                  0.9906305        115.7952
0.36                   0.9897502        114.8579
0.364                  0.9889345        113.9489
0.368                  0.9883244        113.0645
0.372                  0.9880245        112.1983
0.376                  0.9880853        111.3417
0.38                   0.9884941         110.486
0.384                  0.9891776        109.6233
0.388                  0.9900155        108.7482
0.392                  0.9908616        107.8588
0.396                  0.9915689        106.9567
0.4                    0.9920159        106.0467
0.404                  0.9921263         105.136
0.408                  0.9918825        104.2332
0.412                  0.9913279        103.3462
0.416                  0.9905599        102.4814
0.42                    0.989713        101.6423
0.424                  0.9889347         100.829
0.428                  0.9883609         100.038
0.432                  0.9880917        99.26301
0.436                  0.9881739        98.49568
0.44                   0.9885919        97.72739
0.444                  0.9892719        96.95069
0.448                   0.990094        96.16049
0.452                   0.990914        95.35508
0.456                  0.9915886        94.53623
0.46                   0.9919997        93.70898
0.464                  0.9920758        92.88061
0.468                  0.9918038        92.05947
0.472                  0.9912308        91.25352
0.476                  0.9904568         90.4689
0.48                   0.9896171        89.70885
0.484                  0.9888589        88.97321
0.488                  0.9883156        88.25827
0.492                  0.9880828        87.55741
0.496                  0.9882019        86.86237
0.5                    0.9886518        86.16455
0.504                  0.9893533        85.45663
0.508                  0.9901824        84.73386
0.512                   0.990993        83.99483
0.516                  0.9916422        83.24178
0.52                   0.9920151        82.48003
0.524                  0.9920454        81.71721
0.528                  0.9917264        80.96179
0.532                  0.9911132        80.22167
0.536                  0.9903121        79.50284
0.54                   0.9894634        78.80821
0.544                  0.9887165        78.13717
0.548                  0.9882039        77.48553
0.552                  0.9880169        76.84632
0.556                  0.9881896         76.2109
0.56                   0.9886923        75.57062
0.564                  0.9894367        74.91825
0.568                  0.9902911        74.24938
0.572                  0.9911042        73.56311
0.576                  0.9917319        72.86223
0.58                   0.9920622        72.15263
0.584                  0.9920347        71.44236
0.588                  0.9916528        70.74022
0.592                  0.9909812        70.05417
0.596                  0.9901372        69.38995
0.6                    0.9892687        68.75008
0.604                  0.9885298        68.13333
0.608                  0.9880525        67.53487
0.612                  0.9879232        66.94706
0.616                  0.9881667        66.36084
0.62                   0.9887414        65.76736
0.624                  0.9895463         65.1595
0.628                  0.9904394        64.53322
0.632                  0.9912617        63.88829
0.636                  0.9918665        63.22819
0.64                   0.9921453         62.5596
0.644                  0.9920458        61.89122
0.648                  0.9915827        61.23221
0.652                  0.9908355        60.59059
0.656                  0.9899341        59.97191
0.66                   0.9890378        59.37809
0.664                  0.9883061        58.80714
0.668                  0.9878709        58.25335
0.672                  0.9878123        57.70829
0.676                  0.9881431        57.16232
0.68                    0.988807        56.60631
0.684                  0.9896871        56.03329
0.688                  0.9906273        55.43975
0.692                    0.99146        54.82621
0.696                  0.9920357        54.19711
0.7                    0.9922493        53.56007
0.704                  0.9920594        52.92453
0.708                  0.9914958        52.30014
0.712                  0.9906548          51.695
0.716                  0.9896835         51.1143
0.72                   0.9887536        50.55931
0.724                  0.9880314        50.02703
0.728                  0.9876483        49.51068
0.732                  0.9876758        49.00086
0.736                  0.9881123        48.48725
0.74                   0.9888826        47.96041
0.744                  0.9898505        47.41361
0.748                  0.9908443        46.84395
0.752                  0.9916852        46.25294
0.756                  0.9922212        45.64618
0.76                   0.9923533         45.0324
0.764                  0.9920529        44.42192
0.768                  0.9913682        43.82491
0.772                  0.9904164        43.24953
0.776                  0.9893645        42.70052
0.78                   0.9883989        42.17824
0.784                  0.9876935        41.67851
0.788                  0.9873774        41.19329
0.792                  0.9875112          40.712
0.796                  0.9880749        40.22353
0.8                    0.9889707         39.7182
0.804                    0.99004        39.18956
0.808                  0.9910921        38.63557
0.812                   0.991937        38.05891
0.816                  0.9924208        37.46654
0.82                   0.9924519        36.86851
0.824                  0.9920185        36.27615
0.828                  0.9911915        35.70016
0.832                  0.9901129        35.14872
0.836                  0.9889724        34.62595
0.84                   0.9879729         34.1311
0.844                  0.9872959        33.65854
0.848                  0.9870668        33.19867
0.852                  0.9873317        32.73966
0.856                  0.9880479        32.26949
0.86                   0.9890908        31.77829
0.864                  0.9902753        31.26004
0.868                  0.9913893        30.71372
0.872                  0.9922312        30.14351
0.876                  0.9926457        29.55797
0.88                   0.9925523        28.96863
0.884                    0.99196        28.38798
0.888                  0.9909666        27.82729
0.892                  0.9897439         27.2946
0.896                  0.9885073        26.79326
0.9                    0.9874785         26.3211
0.904                  0.9868455        25.87079
0.908                  0.9867276        25.43092
0.912                  0.9871527        24.98814
0.916                  0.9880503        24.52955
0.92                   0.9892634        24.04509
0.924                  0.9905767         23.5294
0.928                   0.991754        22.98277
0.932                  0.9925812        22.41111
0.936                  0.9929041        21.82492
0.94                   0.9926565        21.23744
0.944                  0.9918728         20.6624
0.948                  0.9906843        20.11167
0.952                  0.9892966        19.59305
0.956                  0.9879554        19.10882
0.96                   0.9869025        18.65513
0.964                  0.9863324        18.22252
0.968                  0.9863549        17.79751
0.972                  0.9869742        17.36504
0.976                  0.9880861        16.91122
0.98                   0.9894955        16.42594
0.984                  0.9909511         15.9047
0.988                  0.9921907        15.34944
0.992                  0.9929869         14.7682
0.996                  0.9931887         14.1737
1                      0.9927488        13.58118
1.004                  0.9917335        13.00579
1.008                  0.9903136        12.45994
1.012                  0.9887351        11.95106
1.016                  0.9872789        11.48007
1.02                   0.9862089        11.04102
1.024                  0.9857248        10.62191
1.028                  0.9859236        10.20679
1.032                  0.9867794         9.77862
1.036                  0.9881461        9.322481
1.04                   0.9897834        8.828313
1.044                  0.9913985        8.292789
1.048                  0.9926984        7.719894
1.052                  0.9934429        7.120228
1.056                  0.9934865        6.509178
1.06                   0.9928065        5.904306
1.064                  0.9915086        5.322361
1.068                  0.9898113        4.776344
1.072                  0.9880097        4.273093
1.076                  0.9864253        3.811807
1.08                   0.9853472          3.3839
1.084                  0.9849798        2.974293
1.088                  0.9854015        2.564047
1.092                  0.9865489         2.13384
1.096                  0.9882247         1.66759
1.1                    0.9901331        1.155453
1.104                  0.9919315       0.5956243
1.108                  0.9932921    -0.005352777
1.112                  0.9939597      -0.6337352
1.116                  0.9937984       -1.270919
1.12                   0.9928165        -1.89657
1.124                   0.991169       -2.492026
1.128                  0.9891334       -3.043698
1.132                  0.9870645       -3.545529
1.136                   0.985333       -4.000532
1.14                   0.9842579       -4.420607
1.144                  0.9840472       -4.824682
1.148                  0.9847552       -5.235373
1.152                  0.9862699       -5.674773
1.156                    0.98833       -6.160295
1.16                   0.9905705       -6.701404
1.164                  0.9925882        -7.29792
1.168                  0.9940126       -7.940072
1.172                  0.9945719        -8.61019
1.176                  0.9941426       -9.285676
1.18                    0.992773       -9.942741
1.184                  0.9906803       -10.56042
1.188                  0.9882171       -11.12432
1.192                  0.9858133       -11.62946
1.196                  0.9839018        -12.0817
1.2                    0.9828391        -12.4972
1.204                  0.9828365       -12.89986
1.208                  0.9839172       -13.31698
1.212                  0.9859061       -13.77421
1.216                  0.9884589       -14.29059
1.22                   0.9911222       -14.87506
1.224                  0.9934149       -15.52485
1.228                  0.9949113       -16.22602
1.232                  0.9953183       -16.95586
1.236                  0.9945278        -17.6866
1.24                   0.9926403       -18.38996
1.244                  0.9899538       -19.04187
1.248                  0.9869189       -19.62684
1.252                  0.9840657       -20.14121
1.256                  0.9819103       -20.59457
1.26                   0.9808602       -21.00876
1.264                  0.9811333       -21.41437
1.268                  0.9827111       -21.84513
1.272                  0.9853349       -22.33149
1.276                  0.9885487       -22.89479
1.28                     0.99178        -23.5433
1.284                  0.9944396       -24.27086
1.288                  0.9960267       -25.05798
1.292                  0.9962153       -25.87516
1.296                  0.9949158        -26.6876
1.3                    0.9922958        -27.4607
1.304                  0.9887627       -28.16586
1.308                  0.9849037       -28.78572
1.312                    0.98139       -29.31813
1.316                    0.97886       -29.77768
1.32                   0.9777989       -30.19428
1.324                    0.97844       -30.60819
1.328                  0.9807103        -31.0626
1.332                  0.9842346       -31.59525
1.336                  0.9883974       -32.23112
1.34                   0.9924517       -32.97794
1.344                  0.9956494       -33.82494
1.348                  0.9973703       -34.74496
1.352                  0.9972324       -35.69879
1.356                  0.9951603       -36.64122
1.36                    0.991412       -37.52798
1.364                  0.9865511       -38.32295
1.368                  0.9813679       -39.00501
1.372                   0.976755       -39.57328
1.376                  0.9735503       -40.04946
1.38                   0.9723768       -40.47575
1.384                    0.97351       -40.90803
1.388                  0.9768075       -41.40528
1.392                  0.9817196       -42.01795
1.396                  0.9873809       -42.77807
1.4                    0.9927606       -43.69369
1.404                  0.9968404       -44.74794
1.408                  0.9987883       -45.90228
1.412                  0.9980983       -47.10246
1.416                  0.9946864       -48.28635
1.42                   0.9889263       -49.39271
1.424                  0.9816193        -50.3709
1.428                  0.9738948       -51.19053
1.432                  0.9670404       -51.85002
1.436                  0.9622813       -52.38132
1.44                   0.9605389        -52.8482
1.444                  0.9622237       -53.33653
1.448                  0.9671172        -53.9378
1.452                  0.9743822       -54.73051
1.456                  0.9826975       -55.76483
1.46                    0.990483       -57.05456
1.464                  0.9961619        -58.5765
1.468                  0.9984122       -60.27569
1.472                  0.9963763       -62.07348
1.476                  0.9898102       -63.87733
1.48                   0.9791653       -65.59176
1.484                  0.9655889        -67.1313
1.488                  0.9508294       -68.43631
1.492                  0.9370232       -69.49104
1.496                  0.9263567       -70.34008
1.5                    0.9206311       -71.09532
1.504                  0.9208166       -71.92585
1.508                  0.9267273        -73.0286
1.512                  0.9369352        -74.5891
1.516                  0.9489477       -76.74837
1.52                   0.9595713       -79.58751
1.524                  0.9653359       -83.13101
1.528                   0.962876       -87.36123
1.532                  0.9492213       -92.23603
1.536                  0.9219924       -97.70425
1.54                   0.8795187       -103.7182
1.544                  0.8208993       -110.2444
1.548                  0.7460216       -117.2761
1.552                   0.655555       -124.8557
1.556                  0.5509369       -133.1251
1.56                      0.4344       -142.4674
1.564                  0.3092389        -154.013
1.568                  0.1816478        -172.263
1.572                 0.08234798        133.2719
1.576                  0.1397214        52.87354
1.58                   0.2645815        28.54356
1.584                  0.3916597        15.52508
1.588                   0.511704         5.56853
1.592                  0.6207847       -3.070797
1.596                  0.7163171       -10.94013
1.6                    0.7965526       -18.23989
1.604                  0.8605123       -25.03755
1.608                  0.9079999       -31.33828
1.612                  0.9396198       -37.11347
1.616                  0.9567757       -42.31535
1.62                   0.9616354       -46.88772
1.624                  0.9570427       -50.77771
1.628                   0.946357       -53.95107
1.632                  0.9331961       -56.41109
1.636                  0.9210689        -58.2175
1.64                   0.9129259       -59.49705
1.644                  0.9107156       -60.43564
1.648                  0.9150908       -61.24784
1.652                  0.9253844       -62.13305
1.656                   0.939877       -63.23652
1.66                   0.9562549       -64.63028
1.664                  0.9721005       -66.31587
1.668                  0.9853013       -68.24055
1.672                  0.9943251       -70.31722
1.676                  0.9983657       -72.44242
1.68                   0.9973817       -74.51062
1.684                  0.9920483       -76.42605
1.688                  0.9836375       -78.11321
1.692                   0.973826       -79.52702
1.696                  0.9644462       -80.66128
1.7                    0.9571943       -81.55275
1.704                  0.9533441       -82.27752
1.708                   0.953524       -82.93771
1.712                  0.9576202       -83.64081
1.716                   0.964835       -84.47767
1.72                   0.9738777       -85.50625
1.724                  0.9832305       -86.74479
1.728                  0.9914242       -88.17412
1.732                  0.9972662       -89.74594
1.736                  0.9999999        -91.3934
1.74                   0.9993866       -93.04205
1.744                  0.9957132        -94.6198
1.748                  0.9897325       -96.06642
1.752                  0.9825424       -97.34188
1.756                  0.9754144       -98.43309
1.76                    0.969586       -99.35741
1.764                  0.9660516        -100.161
1.768                  0.9653873       -100.9111
1.772                  0.9676544       -101.6832
1.776                   0.972402       -102.5458
1.78                   0.9787719        -103.548
1.784                  0.9856697       -104.7118
1.788                   0.991966        -106.031
1.792                  0.9966802       -107.4753
1.796                  0.9991273       -108.9966
1.8                    0.9990057        -110.538
1.804                  0.9964277       -112.0414
1.808                  0.9918919        -113.456
1.812                  0.9862015       -114.7455
1.816                  0.9803379       -115.8936
1.82                   0.9753011       -116.9081
1.824                  0.9719425         -117.82
1.828                  0.9708152        -118.679
1.832                  0.9720797       -119.5438
1.836                  0.9754808       -120.4714
1.84                   0.9804057       -121.5062
1.844                  0.9860051       -122.6724
1.848                  0.9913478       -123.9718
1.852                  0.9955773       -125.3847
1.856                  0.9980449       -126.8751
1.86                   0.9984014       -128.3968
1.864                   0.996641       -129.9005
1.868                  0.9930945       -131.3408
1.872                  0.9883753       -132.6828
1.876                  0.9832824       -133.9076
1.88                   0.9786737        -135.016
1.884                   0.975322       -136.0287
1.888                  0.9737829        -136.984
1.892                  0.9742981       -137.9302
1.896                   0.976755       -138.9174
1.9                    0.9807129       -139.9876
1.904                  0.9854899       -141.1676
1.908                   0.990286       -142.4652
1.912                  0.9943198       -143.8691
1.916                  0.9969544       -145.3517
1.92                   0.9977902       -146.8748
1.924                  0.9967216       -148.3947
1.928                  0.9939476       -149.8695
1.932                  0.9899383       -151.2643
1.936                  0.9853626       -152.5572
1.94                   0.9809815       -153.7428
1.944                  0.9775247       -154.8341
1.948                  0.9755668       -155.8604
1.952                  0.9754269       -156.8627
1.956                  0.9771131       -157.8866
1.96                   0.9803243        -158.973
1.964                   0.984508       -160.1515
1.968                  0.9889612       -161.4356
1.972                  0.9929513        -162.821
1.976                  0.9958356       -164.2875
1.98                   0.9971601       -165.8028
1.984                  0.9967259       -167.3278
1.988                   0.994616       -168.8222
1.992                  0.9911806       -170.2508
1.996                  0.9869837       -171.5881
2                      0.9827158       -172.8234
2.004                  0.9790825       -173.9622
2.008                  0.9766876       -175.0269
2.012                  0.9759282       -176.0526
2.016                  0.9769244       -177.0811
2.02                   0.9794986       -178.1537
2.024                  0.9832094       -179.3031
2.028                  0.9874317        179.4518
2.032                  0.9914658        178.1087
2.036                  0.9946525        176.6812
2.04                   0.9964781        175.1962
2.044                  0.9966513        173.6895
2.048                  0.9951458           172.2
2.052                  0.9922036        170.7644
2.056                  0.9882981        169.4115
2.06                   0.9840636        168.1579
2.064                  0.9801948        167.0042
2.068                  0.9773328        165.9349
2.072                  0.9759561        164.9199
2.076                  0.9762943        163.9199
2.08                   0.9782872        162.8932
2.084                   0.981595        161.8033
2.088                  0.9856601        160.6256
2.092                  0.9898035        159.3512
2.096                  0.9933404        157.9874
2.1                    0.9956894        156.5562
2.104                   0.996463        155.0906
2.108                  0.9955261        153.6287
2.112                  0.9930161        152.2093
2.116                  0.9893243        150.8651
2.12                    0.985039        149.6183
2.124                  0.9808549        148.4764
2.128                  0.9774612        147.4299
2.132                  0.9754264        146.4536
2.136                  0.9750958        145.5099
2.14                   0.9765277        144.5559
2.144                  0.9794819        143.5507
2.148                    0.98346        142.4633
2.152                  0.9877932        141.2776
2.156                  0.9917564        139.9946
2.16                   0.9946867        138.6315
2.164                  0.9960873        137.2186
2.168                  0.9957058        135.7945
2.172                  0.9935715        134.4006
2.176                   0.989996        133.0746
2.18                   0.9855306        131.8452
2.184                  0.9808838        130.7272
2.188                   0.976813        129.7178
2.192                  0.9739965        128.7961
2.196                  0.9729149        127.9261
2.2                    0.9737605        127.0621
2.204                  0.9763978        126.1575
2.208                  0.9803836        125.1731
2.212                  0.9850436        124.0842
2.216                  0.9895874        122.8843
2.22                   0.9932402        121.5858
2.224                  0.9953654        120.2169
2.228                  0.9955655        118.8175
2.232                  0.9937444        117.4332
2.236                   0.990127        116.1088
2.24                   0.9852353        114.8818
2.244                  0.9798151        113.7758
2.248                  0.9747278        112.7964
2.252                  0.9708089        111.9278
2.256                  0.9687241        111.1343
2.26                    0.968842        110.3658
2.264                  0.9711586        109.5663
2.268                  0.9752875        108.6844
2.272                  0.9805233         107.683
2.276                  0.9859609        106.5453
2.28                   0.9906457        105.2772
2.284                  0.9937287        103.9054
2.288                  0.9945972        102.4727
2.292                  0.9929739        101.0323
2.296                   0.988966        99.63997
2.3                    0.9830654         98.3468
2.304                  0.9760932        97.19098
2.308                  0.9690897        96.19044
2.312                  0.9631572        95.33724
2.316                   0.959272        94.59573
2.32                   0.9581003        93.90638
2.324                  0.9598549        93.19533
2.328                  0.9642332        92.38813
2.332                  0.9704527        91.42395
2.336                  0.9773773        90.26659
2.34                   0.9837029        88.90958
2.344                  0.9881638        87.37602
2.348                  0.9897253        85.71405
2.352                  0.9877407        83.98992