! TOUCHSTONE file generated by CST MICROWAVE STUDIO
! Date and time: Tue Jun  7 20:32:33 2022
! Project name: AppElm_antenne_patch_FR4.cst
! Parameters = {L=45; W=58.5; e=0.035; h=1.6; lambda=0.190476; ls=120; w0=1.6; w1=0.533333; ws=120; y0=22; y1=23.8095}
! Header version: 2018
! Port assignment regex: !\s*Touchstone port\s*([0-9]+)\s*=\s*(CST MWS port|CST DS port)\s*([0-9]+|Zmin|Zmax)\s*\(\"(.*)\"\)(\s*mode\s*([0-9]+))?.*
! Touchstone port assignment:
! Touchstone port 1 = CST MWS port 1 ("")
# GHz S MA R 50
0                      0.9902225              -0
0.004                  0.9908256        -9.94248
0.008                  0.9925498       -19.79796
0.012                  0.9951522       -29.48365
0.016                  0.9982708       -38.92445
0.02                    1.001479       -48.05544
0.024                   1.004348       -56.82308
0.028                   1.006508       -65.18545
0.032                   1.007697       -73.11182
0.036                   1.007792        -80.5821
0.04                    1.006825       -87.58639
0.044                   1.004974       -94.12467
0.048                   1.002534       -100.2068
0.052                  0.9998742       -105.8523
0.056                  0.9973834       -111.0899
0.06                   0.9954133       -115.9563
0.064                  0.9942258       -120.4942
0.068                  0.9939568        -124.749
0.072                   0.994598       -128.7655
0.076                  0.9960036       -132.5844
0.08                   0.9979192       -136.2392
0.084                   1.000025       -139.7547
0.088                   1.001989       -143.1463
0.092                   1.003518       -146.4206
0.096                   1.004399       -149.5776
0.1                      1.00453       -152.6127
0.104                   1.003928       -155.5195
0.108                   1.002723       -158.2925
0.112                   1.001136       -160.9298
0.116                  0.9994374        -163.434
0.12                   0.9979064       -165.8137
0.124                  0.9967854       -168.0827
0.128                  0.9962415       -170.2592
0.132                   0.996341       -172.3634
0.136                  0.9970427       -174.4149
0.14                   0.9982077       -176.4305
0.144                  0.9996264       -178.4223
0.148                   1.001056        179.6038
0.152                   1.002259        177.6479
0.156                   1.003046         175.715
0.16                    1.003302        173.8141
0.164                   1.003002        171.9557
0.168                   1.002213        170.1498
0.172                   1.001081        168.4039
0.176                  0.9998058        166.7215
0.18                   0.9986056        165.1015
0.184                  0.9976806        163.5374
0.188                  0.9971799        162.0191
0.192                   0.997177        160.5338
0.196                    0.99766        159.0681
0.2                    0.9985334        157.6103
0.204                   0.999639        156.1521
0.208                   1.000782        154.6894
0.212                   1.001768        153.2231
0.216                   1.002433        151.7584
0.22                    1.002669        150.3038
0.224                   1.002446        148.8691
0.228                   1.001809        147.4641
0.232                   1.000876        146.0965
0.236                  0.9998103        144.7708
0.24                   0.9987964        143.4871
0.244                  0.9980077        142.2413
0.248                  0.9975761        141.0257
0.252                    0.99757        139.8301
0.256                  0.9979841        138.6437
0.26                   0.9987395        137.4567
0.264                  0.9997005        136.2621
0.268                   1.000698        135.0569
0.272                   1.001559        133.8421
0.276                   1.002136        132.6226
0.28                    1.002335        131.4063
0.284                   1.002125        130.2024
0.288                   1.001547        129.0199
0.292                   1.000705        127.8663
0.296                  0.9997464        126.7457
0.3                    0.9988387        125.6587
0.304                  0.9981392        124.6017
0.308                  0.9977674         123.568
0.312                  0.9977854        122.5484
0.316                  0.9981865        121.5331
0.32                   0.9988967        120.5136
0.324                  0.9997899        119.4836
0.328                   1.000709        118.4405
0.332                   1.001492        117.3857
0.336                   1.002006        116.3239
0.34                    1.002163        115.2627
0.344                   1.001937         114.211
0.348                   1.001371        113.1774
0.352                   1.000564        112.1688
0.356                   0.999659        111.1891
0.36                    0.998814        110.2388
0.364                  0.9981772        109.3143
0.368                  0.9978595        108.4091
0.372                  0.9979154        107.5143
0.376                  0.9983338        106.6209
0.38                   0.9990397        105.7207
0.384                   0.999908        104.8081
0.388                   1.000786         103.881
0.392                   1.001519        102.9409
0.396                    1.00198         101.993
0.4                     1.002089        101.0447
0.404                   1.001827        100.1048
0.408                   1.001241         99.1816
0.412                   1.000435        98.28176
0.416                  0.9995477        97.40886
0.42                   0.9987373        96.56287
0.424                  0.9981458        95.74014
0.428                  0.9978774        94.93386
0.432                  0.9979793         94.1354
0.436                   0.998433        93.33572
0.44                   0.9991582        92.52708
0.444                   1.000026        91.70427
0.448                   1.000884        90.86565
0.452                   1.001581        90.01328
0.456                   1.001993        89.15258
0.46                    1.002049        88.29132
0.464                   1.001737        87.43829
0.468                   1.001112        86.60173
0.472                   1.000284        85.78791
0.476                  0.9993982        85.00007
0.48                   0.9986106        84.23772
0.484                   0.998061        83.49667
0.488                  0.9978477        82.76979
0.492                  0.9980092         82.0482
0.496                  0.9985177        81.32293
0.5                    0.9992833        80.58641
0.504                   1.000171        79.83387
0.508                   1.001024        79.06423
0.512                    1.00169        78.28015
0.516                   1.002052         77.4876
0.52                    1.002045        76.69476
0.524                   1.001668         75.9106
0.528                   1.000986        75.14337
0.532                   1.000118         74.3991
0.536                  0.9992173        73.68051
0.54                   0.9984426        72.98651
0.544                  0.9979322        72.31226
0.548                  0.9977783        71.65009
0.552                  0.9980091        70.99076
0.556                  0.9985853        70.32511
0.56                    0.999405        69.64581
0.564                   1.000323        68.94855
0.568                   1.001177        68.23289
0.572                   1.001814        67.50219
0.576                   1.002121        66.76314
0.58                     1.00204        66.02448
0.584                   1.001584        65.29551
0.588                   1.000832        64.58447
0.592                   0.999914        63.89709
0.596                  0.9989929        63.23551
0.6                    0.9982324         62.5979
0.604                  0.9977694        61.97859
0.608                  0.9976886        61.36918
0.612                  0.9980065         60.7599
0.616                  0.9986685        60.14149
0.62                   0.9995585        59.50675
0.624                   1.000519        58.85191
0.628                   1.001378        58.17732
0.632                   1.001983        57.48727
0.636                   1.002225        56.78926
0.64                    1.002056        56.09275
0.644                   1.001505        55.40741
0.648                   1.000666        54.74153
0.652                   0.999685        54.10047
0.656                   0.998736        53.48569
0.66                   0.9979886        52.89442
0.664                  0.9975778        52.32005
0.668                  0.9975796        51.75324
0.672                  0.9979965        51.18368
0.676                  0.9987563        50.60186
0.68                   0.9997251        50.00086
0.684                   1.000731        49.37755
0.688                   1.001593        48.73316
0.692                   1.002157        48.07308
0.696                    1.00232        47.40583
0.7                     1.002048         46.7416
0.704                   1.001386        46.09054
0.708                   1.000447        45.46091
0.712                  0.9993969        44.85761
0.716                  0.9984216        44.28127
0.72                   0.9976966        43.72797
0.724                  0.9973542        43.18995
0.728                  0.9974594        42.65686
0.732                  0.9979972        42.11771
0.736                  0.9988744         41.5628
0.74                   0.9999364        40.98551
0.744                   1.000994        40.38353
0.748                   1.001858        39.75922
0.752                   1.002372        39.11918
0.756                    1.00244        38.47311
0.76                    1.002045        37.83211
0.764                   1.001253        37.20678
0.768                     1.0002        36.60533
0.772                  0.9990713        36.03207
0.776                  0.9980675         35.4866
0.78                   0.9973703        34.96371
0.784                  0.9971076        34.45426
0.788                  0.9973312        33.94678
0.792                   0.998005        33.42952
0.796                  0.9990115        32.89263
0.8                     1.000172        32.32996
0.804                    1.00128        31.74016
0.808                   1.002135        31.12689
0.812                   1.002581         30.4982
0.816                   1.002534        29.86512
0.82                    1.001994        29.23972
0.824                   1.001053        28.63303
0.828                  0.9998731        28.05312
0.832                  0.9986623        27.50356
0.836                  0.9976372        26.98267
0.84                   0.9969847        26.48369
0.844                  0.9968267        25.99592
0.848                  0.9971973        25.50656
0.852                  0.9980355        25.00312
0.856                  0.9991949        24.47564
0.86                     1.00047        23.91858
0.864                   1.001633        23.33177
0.868                   1.002474        22.72046
0.872                   1.002838        22.09435
0.876                   1.002653        21.46596
0.88                    1.001945        20.84844
0.884                   1.000833        20.25328
0.888                  0.9995103        19.68829
0.892                  0.9982101         19.1561
0.896                  0.9971667        18.65352
0.9                    0.9965711        18.17199
0.904                  0.9965366        17.69899
0.908                   0.997076         17.2203
0.912                  0.9980984        16.72263
0.916                  0.9994244        16.19602
0.92                    1.000818        15.63573
0.924                    1.00203        15.04305
0.928                   1.002838        14.42504
0.932                   1.003092        13.79334
0.936                   1.002738        13.16213
0.94                     1.00183        12.54571
0.944                    1.00052          11.956
0.948                  0.9990371        11.40042
0.952                  0.9976441        10.88038
0.956                  0.9965931        10.39087
0.96                   0.9960788        9.921161
0.964                  0.9962021        9.456666
0.968                  0.9969494        8.981545
0.972                   0.998194        8.481653
0.976                  0.9997176        7.947157
0.98                    1.001249         7.37433
0.984                   1.002514        6.766213
0.988                    1.00328        6.132053
0.992                   1.003403        5.485704
0.996                   1.002849        4.843258
1                       1.001707        4.220297
1.004                    1.00017        3.629175
1.008                  0.9985061        3.076751
1.012                  0.9970114        2.562973
1.016                  0.9959583        2.080649
1.02                   0.9955442        1.616528
1.024                  0.9958534        1.153612
1.028                  0.9968409        0.674249
1.032                   0.998337       0.1634262
1.036                   1.000078      -0.3884456
1.04                    1.001753      -0.9837872
1.044                    1.00306       -1.617439
1.048                   1.003756       -2.277583
1.052                   1.003705       -2.947772
1.056                   1.002902       -3.609718
1.06                    1.001475       -4.246399
1.064                  0.9996654       -4.845048
1.068                  0.9977896       -5.399548
1.072                  0.9961828       -5.911787
1.076                  0.9951397       -6.391636
1.08                   0.9948591       -6.855402
1.084                  0.9954049       -7.322963
1.088                   0.996692       -7.814081
1.092                  0.9984994       -8.344814
1.096                   1.000509       -8.924315
1.1                     1.002362       -9.553403
1.104                   1.003722       -10.22435
1.108                   1.004337       -10.92225
1.112                   1.004082       -11.62757
1.116                   1.002983       -12.31941
1.12                    1.001217       -12.97901
1.124                  0.9990839        -13.5931
1.128                  0.9969582       -14.15654
1.132                  0.9952216        -14.6734
1.136                  0.9941951        -15.1568
1.14                   0.9940785       -15.62678
1.144                  0.9949105       -16.10668
1.148                   0.996557       -16.61882
1.152                  0.9987341       -17.18033
1.156                   1.001057       -17.79991
1.16                    1.003109       -18.47636
1.164                   1.004516       -19.19876
1.168                   1.005011       -19.94843
1.172                   1.004482       -20.70203
1.176                   1.002997       -21.43541
1.18                    1.000794        -22.1277
1.184                  0.9982466       -22.76501
1.188                  0.9958005       -23.34322
1.192                  0.9938969       -23.86926
1.196                  0.9928918       -24.36041
1.2                    0.9929875        -24.8414
1.204                  0.9941905       -25.34007
1.208                  0.9963057       -25.88208
1.212                  0.9989689       -26.48602
1.216                   1.001711       -27.16008
1.22                     1.00404       -27.90052
1.224                    1.00553        -28.6925
1.228                   1.005892       -29.51257
1.232                   1.005032       -30.33251
1.236                   1.003065       -31.12393
1.24                    1.000307       -31.86301
1.244                  0.9972239       -32.53483
1.248                  0.9943567       -33.13648
1.252                  0.9922262       -33.67835
1.256                  0.9912368       -34.18304
1.26                   0.9915976       -34.68155
1.264                  0.9932762        -35.2077
1.268                  0.9959989       -35.79167
1.272                  0.9992965       -36.45423
1.276                   1.002586       -37.20297
1.28                    1.005275       -38.03103
1.284                   1.006863       -38.91841
1.288                    1.00703       -39.83533
1.292                   1.005695       -40.74692
1.296                   1.003037        -41.6188
1.3                    0.9994731       -42.42274
1.304                  0.9955992       -43.14186
1.308                  0.9920905       -43.77443
1.312                  0.9895864       -44.33535
1.316                  0.9885697       -44.85456
1.32                   0.9892691       -45.37212
1.324                  0.9916064       -45.93078
1.328                  0.9952023       -46.56774
1.332                  0.9994391       -47.30752
1.336                    1.00357       -48.15752
1.34                    1.006847       -49.10697
1.344                   1.008654       -50.12891
1.348                   1.008609       -51.18463
1.352                   1.006637       -52.22951
1.356                   1.002993       -53.21991
1.36                   0.9982349       -54.12022
1.364                  0.9931464       -54.90943
1.368                  0.9886121       -55.58636
1.372                  0.9854646        -56.1718
1.376                  0.9843262       -56.70656
1.38                   0.9854777       -57.24493
1.384                  0.9887893       -57.84436
1.388                  0.9937284       -58.55419
1.392                  0.9994485       -59.40612
1.396                   1.004936        -60.4085
1.4                     1.009185       -61.54545
1.404                   1.011364       -62.77984
1.408                   1.010961         -64.059
1.412                   1.007876       -65.32227
1.416                   1.002456       -66.50955
1.42                   0.9954728       -67.57061
1.424                  0.9880232       -68.47435
1.428                  0.9813706       -69.21717
1.432                  0.9767288       -69.82759
1.436                  0.9750283        -70.3649
1.44                   0.9767124        -70.9103
1.444                  0.9816152        -71.5513
1.448                  0.9889633       -72.36403
1.452                  0.9974982       -73.39815
1.456                   1.005691       -74.66846
1.46                    1.011994       -76.15383
1.464                   1.015094       -77.80166
1.468                   1.014117        -79.5356
1.472                   1.008779       -81.26492
1.476                   0.999482       -82.89512
1.48                   0.9873113       -84.34026
1.484                  0.9739583       -85.53816
1.488                  0.9615193       -86.46728
1.492                  0.9521763       -87.16238
1.496                  0.9477782       -87.72152
1.5                    0.9494042       -88.29723
1.504                  0.9570314       -89.06934
1.508                  0.9694233       -90.20768
1.512                  0.9842749        -91.8389
1.516                  0.9985486       -94.02905
1.52                    1.008884       -96.78354
1.524                    1.01198       -100.0576
1.528                   1.004901       -103.7694
1.532                  0.9852861       -107.8094
1.536                  0.9515037       -112.0436
1.54                   0.9027484       -116.3078
1.544                  0.8391287       -120.3914
1.548                  0.7617758       -124.0029
1.552                  0.6730435       -126.7035
1.556                  0.5769538       -127.7814
1.56                   0.4802277       -126.0332
1.564                  0.3944907        -119.564
1.568                  0.3390522       -106.6485
1.572                   0.335433       -89.72397
1.576                  0.3854374       -76.03693
1.58                   0.4687136        -68.8455
1.584                  0.5650115       -66.66602
1.588                  0.6618524       -67.52992
1.592                  0.7520342       -70.15286
1.596                  0.8312493       -73.77515
1.6                    0.8969409       -77.93239
1.604                  0.9478088       -82.31914
1.608                  0.9835896       -86.71688
1.612                   1.004943       -90.95642
1.616                   1.013371       -94.89935
1.62                     1.01112       -98.43119
1.624                   1.001056       -101.4631
1.628                   0.986461       -103.9408
1.632                  0.9707524       -105.8577
1.636                  0.9571128       -107.2674
1.64                   0.9480706       -108.2874
1.644                   0.945129        -109.085
1.648                  0.9485632        -109.847
1.652                  0.9574748       -110.7393
1.656                  0.9700882       -111.8768
1.66                   0.9841838       -113.3091
1.664                  0.9975373       -115.0257
1.668                   1.008269       -116.9702
1.672                   1.015073       -119.0585
1.676                   1.017331       -121.1939
1.68                    1.015122       -123.2799
1.684                   1.009171       -125.2313
1.688                    1.00071       -126.9836
1.692                  0.9912962       -128.5011
1.696                  0.9825722       -129.7843
1.7                    0.9760065       -130.8709
1.704                  0.9726492       -131.8313
1.708                  0.9729572       -132.7554
1.712                  0.9767341        -133.735
1.716                  0.9832016       -134.8454
1.72                   0.9911763       -136.1325
1.724                  0.9993071       -137.6084
1.728                   1.006308       -139.2532
1.732                   1.011154       -141.0225
1.736                   1.013218       -142.8565
1.74                     1.01233       -144.6895
1.744                   1.008782       -146.4587
1.748                   1.003266       -148.1126
1.752                  0.9967618       -149.6181
1.756                  0.9903844       -150.9656
1.76                    0.985201       -152.1717
1.764                   0.982055       -153.2769
1.768                  0.9814225       -154.3385
1.772                  0.9833366       -155.4202
1.776                  0.9873958       -156.5793
1.78                   0.9928548       -157.8568
1.784                   0.998769        -159.271
1.788                   1.004166       -160.8165
1.792                   1.008202       -162.4672
1.796                   1.010287       -164.1822
1.8                     1.010159       -165.9125
1.804                   1.007915       -167.6084
1.808                   1.003981       -169.2265
1.812                   0.999044       -170.7357
1.816                  0.9939409       -172.1222
1.82                   0.9895232       -173.3922
1.824                  0.9865163       -174.5712
1.828                  0.9853955       -175.6999
1.832                  0.9863071        -176.827
1.836                  0.9890487       -177.9998
1.84                    0.993116       -179.2554
1.844                  0.9978004        179.3849
1.848                   1.002317        177.9188
1.852                   1.005938        176.3616
1.856                   1.008104        174.7429
1.86                    1.008505        173.1011
1.864                   1.007123        171.4776
1.868                   1.004221        169.9105
1.872                   1.000305        168.4295
1.876                  0.9960385        167.0506
1.88                   0.9921348        165.7741
1.884                  0.9892408        164.5835
1.888                  0.9878263        163.4482
1.892                  0.9881031        162.3293
1.896                  0.9899921        161.1861
1.9                    0.9931431        159.9842
1.904                  0.9970023        158.7012
1.908                   1.000914        157.3298
1.912                   1.004231        155.8784
1.916                   1.006425         154.369
1.92                    1.007157        152.8326
1.924                   1.006337        151.3048
1.928                   1.004122        149.8199
1.932                   1.000897         148.406
1.936                   0.997207        147.0809
1.94                   0.9936698        145.8485
1.944                  0.9908751        144.6982
1.948                  0.9892825        143.6065
1.952                  0.9891436        142.5405
1.956                  0.9904583        141.4646
1.96                   0.9929793        140.3464
1.964                  0.9962603         139.163
1.968                  0.9997368        137.9041
1.972                   1.002825        136.5735
1.976                   1.005019        135.1876
1.98                     1.00597        133.7725
1.984                   1.005538        132.3591
1.988                   1.003811         130.979
1.992                   1.001087        129.6592
1.996                  0.9978279        128.4179
2                      0.9945826        127.2616
2.004                   0.991895        126.1837
2.008                  0.9902123        125.1651
2.012                  0.9898081        124.1777
2.016                  0.9907336        123.1894
2.02                   0.9928121        122.1698
2.024                  0.9956724        121.0957
2.028                  0.9988176         119.955
2.032                   1.001712        118.7486
2.036                   1.003872        117.4889
2.04                    1.004944        116.1983
2.044                   1.004759        114.9046
2.048                   1.003356        113.6371
2.052                   1.000976        112.4216
2.056                  0.9980202        111.2768
2.06                   0.9949859        110.2106
2.064                  0.9923828        109.2191
2.068                  0.9906468        108.2864
2.072                  0.9900635        107.3879
2.076                  0.9907187        106.4938
2.08                   0.9924843        105.5753
2.084                  0.9950431        104.6093
2.088                  0.9979472        103.5825
2.092                   1.000697        102.4936
2.096                   1.002827        101.3523
2.1                     1.003981        100.1783
2.104                   1.003969        98.99711
2.108                   1.002796        97.83614
2.112                   1.000659         96.7206
2.116                  0.9979174        95.66927
2.12                   0.9950291        94.69136
2.124                  0.9924791        93.78484
2.128                  0.9906951        92.93637
2.132                  0.9899734         92.1235
2.136                  0.9904261        91.31853
2.14                   0.9919622        90.49357
2.144                  0.9943051        89.62551
2.148                  0.9970428        88.70008
2.152                   0.999701        87.71401
2.156                   1.001824        86.67516
2.16                     1.00305        85.60097
2.164                   1.003169        84.51525
2.168                   1.002156        83.44446
2.172                   1.000173        82.41347
2.176                  0.9975429        81.44163
2.18                   0.9946999        80.53954
2.184                  0.9921152        79.70701
2.188                  0.9902193        78.93282
2.192                  0.9893266         78.1963
2.196                    0.98958        77.47098
2.2                    0.9909257        76.72915
2.204                  0.9931226        75.94696
2.208                  0.9957856         75.1085
2.212                  0.9984525        74.20835
2.216                   1.000663        73.25218
2.22                    1.002035        72.25554
2.224                   1.002324        71.24105
2.228                   1.001465        70.23487
2.232                  0.9995787        69.26261
2.236                  0.9969578        68.34523
2.24                   0.9940185        67.49576
2.244                  0.9912359        66.71672
2.248                  0.9890653        65.99936
2.252                  0.9878641        65.32478
2.256                  0.9878295        64.66682
2.26                   0.9889619        63.99667
2.264                  0.9910629        63.28793
2.268                  0.9937687        62.52115
2.272                  0.9966114        61.68713
2.276                  0.9990962        60.78817
2.28                    1.000782        59.83749
2.284                    1.00135        58.85695
2.288                   1.000659        57.87373
2.292                  0.9987638        56.91627
2.296                  0.9959147        56.00996
2.3                    0.9925227         55.1732
2.304                  0.9891001        54.41398
2.308                  0.9861809          53.728
2.312                  0.9842343        53.09847
2.316                  0.9835825        52.49829
2.32                   0.9843402        51.89414
2.324                   0.986388        51.25214
2.328                  0.9893837        50.54358
2.332                  0.9928137        49.74988
2.336                  0.9960703        48.86551
2.34                    0.998546        47.89888
2.344                  0.9997251        46.87101
2.348                  0.9992647        45.81271
2.352                  0.9970528        44.76052