! TOUCHSTONE file generated by CST MICROWAVE STUDIO
! Date and time: Tue Jun  7 20:32:34 2022
! Project name: AppElm_antenne_patch_FR4.cst
! Parameters = {L=45; W=58.5; e=0.035; h=1.6; lambda=0.190476; ls=120; w0=1.6; w1=0.533333; ws=120; y0=23; y1=23.8095}
! Header version: 2018
! Port assignment regex: !\s*Touchstone port\s*([0-9]+)\s*=\s*(CST MWS port|CST DS port)\s*([0-9]+|Zmin|Zmax)\s*\(\"(.*)\"\)(\s*mode\s*([0-9]+))?.*
! Touchstone port assignment:
! Touchstone port 1 = CST MWS port 1 ("")
# GHz S MA R 50
0                       0.990914              -0
0.004                    0.99149       -9.952279
0.008                  0.9931346       -19.81737
0.012                  0.9956106       -29.51224
0.016                   0.998565       -38.96158
0.02                    1.001583       -48.10023
0.024                   1.004251       -56.87442
0.028                   1.006215       -65.24209
0.032                    1.00723       -73.17251
0.036                   1.007192       -80.64586
0.04                    1.006147       -87.65267
0.044                   1.004284       -94.19369
0.048                   1.001901       -100.2798
0.052                  0.9993664       -105.9315
0.056                  0.9970564       -111.1789
0.06                   0.9953033       -116.0595
0.064                  0.9943435       -120.6165
0.068                  0.9942838       -124.8952
0.072                  0.9950879       -128.9396
0.076                  0.9965878       -132.7892
0.08                   0.9985154        -136.476
0.084                   1.000549       -140.0226
0.088                   1.002365       -143.4428
0.092                   1.003692       -146.7418
0.096                   1.004345       -149.9186
0.1                     1.004255       -152.9683
0.104                   1.003472       -155.8851
0.108                   1.002154       -158.6646
0.112                   1.000538       -161.3064
0.116                  0.9989034       -163.8152
0.12                   0.9975201       -166.2016
0.124                  0.9966088       -168.4813
0.128                  0.9963047       -170.6734
0.132                  0.9966369       -172.7985
0.136                  0.9975274       -174.8757
0.14                   0.9988071       -176.9203
0.144                   1.000248       -178.9425
0.148                   1.001603        179.0541
0.152                   1.002647        177.0715
0.156                   1.003216        175.1165
0.16                    1.003228        173.1991
0.164                   1.002697        171.3299
0.168                   1.001729        169.5181
0.172                   1.000498        167.7698
0.176                  0.9992205        166.0866
0.18                   0.9981156        164.4647
0.184                  0.9973688        162.8958
0.188                  0.9970999        161.3679
0.192                   0.997344        159.8675
0.196                  0.9980471        158.3812
0.2                    0.9990777        156.8984
0.204                    1.00025        155.4127
0.208                    1.00136        153.9223
0.212                   1.002215        152.4304
0.216                   1.002675        150.9443
0.22                    1.002665        149.4737
0.224                   1.002196         148.029
0.228                   1.001355        146.6196
0.232                   1.000292        145.2518
0.236                  0.9991933        143.9279
0.24                   0.9982501        142.6459
0.244                  0.9976241        141.3992
0.248                  0.9974198        140.1781
0.252                  0.9976667        138.9713
0.256                  0.9983159        137.7678
0.26                   0.9992484        136.5589
0.264                   1.000298        135.3394
0.268                   1.001279        134.1085
0.272                   1.002023        132.8698
0.276                   1.002403        131.6304
0.28                    1.002355        130.3996
0.284                   1.001893        129.1873
0.288                   1.001099        128.0024
0.292                   1.000116        126.8507
0.296                   0.999116        125.7346
0.3                     0.998274        124.6519
0.304                  0.9977371        123.5968
0.308                  0.9975978        122.5602
0.312                  0.9978777        121.5319
0.316                  0.9985251        120.5018
0.32                   0.9994237        119.4622
0.324                   1.000415        118.4089
0.328                   1.001323        117.3416
0.332                   1.001992        116.2642
0.336                   1.002305        115.1838
0.34                    1.002209        114.1097
0.344                   1.001724        113.0513
0.348                   1.000935        112.0171
0.352                   0.999983        111.0124
0.356                  0.9990347        110.0392
0.36                   0.9982574        109.0952
0.364                  0.9977877        108.1744
0.368                  0.9977078        107.2678
0.372                  0.9980311        106.3657
0.376                   0.998699        105.4586
0.38                   0.9995926        104.5395
0.384                   1.000554        103.6046
0.388                   1.001413        102.6543
0.392                   1.002019        101.6929
0.396                   1.002266        100.7279
0.4                      1.00211        99.76838
0.404                   1.001581         98.8238
0.408                   1.000769         97.9021
0.412                  0.9998186        97.00833
0.416                  0.9988966        96.14383
0.42                   0.9981655        95.30583
0.424                  0.9977549        94.48797
0.428                  0.9977371        93.68133
0.432                  0.9981154        92.87602
0.436                  0.9988219          92.063
0.44                   0.9997314        91.23563
0.444                   1.000683        90.39088
0.448                   1.001507        89.52975
0.452                   1.002059        88.65709
0.456                   1.002241        87.78071
0.46                     1.00202           86.91
0.464                   1.001435        86.05426
0.468                   1.000587        85.22117
0.472                  0.9996263         84.4153
0.476                  0.9987219         83.6374
0.48                   0.9980348        82.88407
0.484                  0.9976874        82.14839
0.488                  0.9977424        81.42111
0.492                  0.9981908         80.6923
0.496                  0.9989539        79.95308
0.5                    0.9998961        79.19734
0.504                   1.000851         78.4226
0.508                   1.001649        77.63065
0.512                   1.002149        76.82702
0.516                   1.002262        76.02001
0.52                    1.001967        75.21935
0.524                   1.001314        74.43439
0.528                   1.000418        73.67245
0.532                  0.9994358        72.93766
0.536                   0.998543        72.22997
0.54                   0.9978982        71.54528
0.544                  0.9976176        70.87601
0.548                  0.9977526        70.21239
0.552                  0.9982807        69.54434
0.556                   0.999109        68.86318
0.56                    1.000091        68.16321
0.564                   1.001052        67.44277
0.568                    1.00182        66.70445
0.572                    1.00226        65.95456
0.576                   1.002291        65.20211
0.58                    1.001906        64.45716
0.584                   1.001169         63.7291
0.588                   1.000211          63.025
0.592                  0.9991989        62.34833
0.596                  0.9983133        61.69826
0.6                    0.9977122        61.06977
0.604                  0.9975048        60.45442
0.608                  0.9977293        59.84196
0.612                  0.9983478        59.22201
0.616                   0.999251        58.58609
0.62                    1.000278        57.92908
0.624                   1.001247        57.25012
0.628                   1.001984        56.55275
0.632                   1.002356        55.84424
0.636                   1.002295         55.1343
0.64                    1.001808        54.43346
0.644                    1.00098        53.75114
0.648                  0.9999536        53.09406
0.652                  0.9989114        52.46494
0.656                  0.9980387        51.86202
0.66                   0.9974927        51.27923
0.664                  0.9973734        50.70719
0.668                  0.9977049        50.13497
0.672                  0.9984303        49.55199
0.676                  0.9994217        48.94999
0.68                    1.000503        48.32449
0.684                   1.001482        47.67557
0.688                   1.002183         47.0079
0.692                   1.002479        46.32978
0.696                   1.002315        45.65177
0.7                     1.001716        44.98485
0.704                   1.000786        44.33847
0.708                  0.9996868        43.71888
0.712                  0.9986139        43.12802
0.716                  0.9977597        42.56297
0.72                    0.997279        42.01647
0.724                  0.9972611        41.47812
0.728                  0.9977127        40.93626
0.732                  0.9985559         40.3801
0.736                   0.999642        39.80166
0.74                    1.000778        39.19725
0.744                    1.00176        38.56808
0.748                   1.002413        37.92003
0.752                   1.002616         37.2626
0.756                   1.002329        36.60727
0.76                    1.001599        35.96548
0.764                   1.000551        35.34668
0.768                  0.9993685        34.75657
0.772                   0.998262        34.19606
0.776                  0.9974298        33.66099
0.78                   0.9970236        33.14273
0.784                  0.9971199        32.62973
0.788                  0.9977051        32.10955
0.792                  0.9986774        31.57122
0.796                  0.9998647        31.00716
0.8                     1.001055        30.41458
0.804                   1.002034        29.79598
0.808                   1.002626        29.15865
0.812                    1.00272        28.51338
0.816                   1.002293        27.87263
0.82                    1.001417        27.24835
0.824                   1.000242        26.64986
0.828                  0.9989734        26.08222
0.832                  0.9978385        25.54515
0.836                  0.9970417        25.03298
0.84                   0.9967298        24.53559
0.844                  0.9969634        24.04013
0.848                  0.9977055        23.53337
0.852                  0.9988267        23.00417
0.856                   1.000129        22.44547
0.86                    1.001379        21.85558
0.864                   1.002354        21.23846
0.868                   1.002875        20.60298
0.872                   1.002845         19.9614
0.876                   1.002263        19.32722
0.88                    1.001225        18.71288
0.884                  0.9999121        18.12754
0.888                  0.9985552        17.57542
0.892                  0.9973976        17.05487
0.896                  0.9966494        16.55854
0.9                    0.9964508        16.07457
0.904                  0.9968435        15.58872
0.908                  0.9977631        15.08692
0.912                   0.999049        14.55793
0.916                   1.000474        13.99536
0.92                    1.001783         13.3988
0.924                    1.00274        12.77392
0.928                   1.003171        12.13137
0.932                   1.002991        11.48502
0.936                   1.002223        10.84953
0.94                    1.000998        10.23783
0.944                  0.9995265        9.658856
0.948                  0.9980685          9.1158
0.952                  0.9968855        8.605421
0.956                  0.9961939        8.118417
0.96                   0.9961242        7.640992
0.964                  0.9966962        7.157319
0.968                  0.9978137        6.652456
0.972                  0.9992809        6.115112
0.976                   1.000837        5.539706
0.98                    1.002203        4.927353
0.984                   1.003132        4.285636
0.988                   1.003451        3.627267
0.992                   1.003093        2.967903
0.996                   1.002113        2.323482
1                       1.000673        1.707464
1.004                  0.9990246        1.128421
1.008                  0.9974578       0.5883659
1.012                  0.9962555      0.08216479
1.016                  0.9956391      -0.4017484
1.02                   0.9957281      -0.8794099
1.024                  0.9965155       -1.368431
1.028                  0.9978681       -1.884738
1.032                  0.9995493        -2.43962
1.036                   1.001261       -3.037679
1.04                    1.002695       -3.676029
1.044                   1.003593       -4.344841
1.048                   1.003784        -5.02906
1.052                   1.003224       -5.710958
1.056                   1.001999       -6.373142
1.06                    1.000316       -7.001562
1.064                  0.9984671       -7.588062
1.068                  0.9967802        -8.13204
1.072                  0.9955617        -8.64084
1.076                   0.995039       -9.128702
1.08                   0.9953178       -9.614219
1.084                    0.99636       -10.11714
1.088                  0.9979887       -10.65448
1.092                  0.9999191       -11.23748
1.096                   1.001809       -11.86966
1.1                     1.003318       -12.54596
1.104                   1.004171       -13.25394
1.108                   1.004204       -13.97576
1.112                   1.003395       -14.69129
1.116                    1.00187       -15.38136
1.12                   0.9998868       -16.03118
1.124                   0.997788       -16.63303
1.128                  0.9959463       -17.18799
1.132                  0.9946973         -17.706
1.136                  0.9942763       -18.20446
1.14                   0.9947734        -18.7052
1.144                  0.9961139       -19.23042
1.148                  0.9980691       -19.79858
1.152                   1.000296       -20.42096
1.156                   1.002399       -21.09964
1.16                    1.003998       -21.82718
1.164                   1.004797       -22.58797
1.168                   1.004637       -23.36084
1.172                   1.003523       -24.12261
1.176                    1.00163       -24.85192
1.18                   0.9992746       -25.53295
1.184                  0.9968636       -26.15843
1.188                   0.994826       -26.73131
1.192                  0.9935351       -27.26477
1.196                  0.9932391       -27.78017
1.2                     0.994011       -28.30334
1.204                  0.9957321       -28.85976
1.208                  0.9981096       -29.46979
1.212                   1.000728        -30.1449
1.216                   1.003123       -30.88564
1.22                    1.004861       -31.68161
1.224                   1.005619       -32.51329
1.228                   1.005238       -33.35531
1.232                   1.003754       -34.18055
1.236                   1.001399       -34.96463
1.24                   0.9985655       -35.69015
1.244                  0.9957437       -36.35004
1.248                  0.9934375       -36.94951
1.252                  0.9920741       -37.50571
1.256                  0.9919233       -38.04512
1.26                   0.9930416       -38.59892
1.264                  0.9952567       -39.19714
1.268                   0.998194       -39.86294
1.272                   1.001343       -40.60837
1.276                   1.004144       -41.43226
1.28                     1.00609       -42.32052
1.284                   1.006811       -43.24863
1.288                   1.006142       -44.18554
1.292                   1.004153       -45.09866
1.296                   1.001149       -45.95907
1.3                    0.9976224       -46.74662
1.304                  0.9941779       -47.45396
1.308                  0.9914295       -48.08876
1.312                  0.9898898       -48.67332
1.316                  0.9898703       -49.24125
1.32                   0.9914161       -49.83151
1.324                  0.9942891       -50.48099
1.328                  0.9980045       -51.21753
1.332                   1.001916        -52.0547
1.336                   1.005325       -52.98954
1.34                    1.007607       -54.00332
1.344                   1.008314       -55.06455
1.348                   1.007253       -56.13407
1.352                   1.004532       -57.17088
1.356                   1.000547       -58.13868
1.36                   0.9959351       -59.01216
1.364                  0.9914759       -59.78219
1.368                  0.9879611       -60.45911
1.372                  0.9860521       -61.07241
1.376                  0.9861497       -61.66662
1.38                   0.9883041       -62.29333
1.384                  0.9921928        -63.0014
1.388                  0.9971681       -63.82736
1.392                   1.002369       -64.78875
1.396                   1.006866       -65.88121
1.4                     1.009824        -67.0796
1.404                   1.010637       -68.34219
1.408                   1.009038        -69.6167
1.412                   1.005155       -70.84788
1.416                    0.99951       -71.98561
1.42                   0.9929659       -72.99345
1.424                  0.9866016       -73.85638
1.428                  0.9815419       -74.58644
1.432                  0.9787548       -75.22402
1.436                  0.9788552       -75.83295
1.44                   0.9819608       -76.48944
1.444                  0.9876405       -77.26715
1.448                  0.9949712       -78.22263
1.452                    1.00269       -79.38473
1.456                   1.009405       -80.75036
1.46                    1.013822       -82.28592
1.464                   1.014949       -83.93279
1.468                   1.012262       -85.61502
1.472                   1.005814       -87.24857
1.476                  0.9962718       -88.75176
1.48                   0.9848834       -90.05761
1.484                  0.9733485       -91.12797
1.488                  0.9635873        -91.9675
1.492                  0.9574156        -92.6333
1.496                  0.9561692       -93.23422
1.5                    0.9603639       -93.91538
1.504                  0.9694941       -94.83062
1.508                   0.982037       -96.11129
1.512                  0.9956542       -97.84329
1.516                   1.007517       -100.0578
1.52                    1.014664       -102.7341
1.524                   1.014315       -105.8091
1.528                   1.004126       -109.1859
1.532                   0.982368       -112.7397
1.536                   0.948072       -116.3171
1.54                   0.9011376       -119.7283
1.544                  0.8424547       -122.7308
1.548                  0.7740704        -125.003
1.552                  0.6994562       -126.1092
1.556                  0.6239396        -125.471
1.56                   0.5552641       -122.4192
1.564                  0.5037465       -116.5072
1.568                  0.4803685       -108.2386
1.572                  0.4914116       -99.53196
1.576                  0.5338054       -92.63752
1.58                   0.5975476       -88.58838
1.584                  0.6716829       -87.18751
1.588                  0.7474913       -87.78928
1.592                  0.8188304       -89.76812
1.596                  0.8816115       -92.63811
1.6                    0.9333014       -96.04097
1.604                  0.9725978       -99.70984
1.608                  0.9992321        -103.439
1.612                   1.013836       -107.0639
1.616                    1.01783       -110.4503
1.62                    1.013302       -113.4907
1.624                   1.002848       -116.1074
1.628                  0.9893569       -118.2601
1.632                  0.9757306       -119.9555
1.636                  0.9645488       -121.2539
1.64                   0.9577285       -122.2663
1.644                  0.9562594       -123.1379
1.648                  0.9601038       -124.0206
1.652                  0.9683011       -125.0427
1.656                  0.9792453       -126.2871
1.66                   0.9910436       -127.7841
1.664                   1.001866       -129.5166
1.668                   1.010218       -131.4316
1.672                   1.015111        -133.455
1.676                   1.016148       -135.5038
1.68                    1.013521       -137.4972
1.684                   1.007942       -139.3661
1.688                   1.000522        -141.061
1.692                   0.992595       -142.5589
1.696                  0.9855129       -143.8673
1.7                    0.9804311        -145.024
1.704                  0.9781216       -146.0909
1.708                  0.9788516       -147.1429
1.712                  0.9823605       -148.2529
1.716                  0.9879359       -149.4784
1.72                    0.994568       -150.8524
1.724                   1.001143       -152.3802
1.728                   1.006628        -154.042
1.732                   1.010228       -155.7986
1.736                   1.011488       -157.5991
1.74                    1.010335       -159.3889
1.744                   1.007072       -161.1172
1.748                   1.002319       -162.7438
1.752                  0.9969101       -164.2448
1.756                  0.9917603       -165.6165
1.76                   0.9877168        -166.876
1.764                  0.9854196       -168.0592
1.768                   0.985197       -169.2137
1.772                  0.9870172       -170.3905
1.776                  0.9905067       -171.6341
1.78                   0.9950307        -172.975
1.784                  0.9998138       -174.4254
1.788                   1.004075       -175.9785
1.792                   1.007155       -177.6113
1.796                   1.008608       -179.2892
1.8                     1.008265        179.0281
1.804                   1.006244        177.3806
1.808                   1.002927        175.8025
1.812                  0.9988934        174.3169
1.816                  0.9948245        172.9323
1.82                   0.9913954        171.6412
1.824                  0.9891613        170.4211
1.828                  0.9884655        169.2382
1.832                  0.9893841        168.0538
1.836                  0.9917198        166.8312
1.84                   0.9950445        165.5425
1.844                  0.9987807        164.1725
1.848                   1.002304        162.7214
1.852                   1.005048        161.2027
1.856                    1.00659        159.6414
1.86                    1.006715        158.0687
1.864                   1.005441        156.5175
1.868                   1.003008        155.0176
1.872                  0.9998411         153.591
1.876                  0.9964765        152.2486
1.88                   0.9934757        150.9884
1.884                  0.9913309        149.7953
1.888                  0.9903824        148.6442
1.892                  0.9907635        147.5041
1.896                   0.992379        146.3438
1.9                    0.9949285        145.1375
1.904                   0.997963        143.8691
1.908                   1.000967        142.5348
1.912                   1.003443        141.1427
1.916                   1.004995        139.7109
1.92                     1.00539        138.2647
1.924                   1.004585        136.8319
1.928                   1.002734        135.4389
1.932                   1.000161        134.1063
1.936                  0.9973031        132.8461
1.94                   0.9946397        131.6592
1.944                  0.9926124        130.5354
1.948                  0.9915499        129.4552
1.952                   0.991612        128.3928
1.956                  0.9927654         127.321
1.96                   0.9947916        126.2162
1.964                  0.9973301        125.0623
1.968                  0.9999423        123.8531
1.972                   1.002189        122.5934
1.976                   1.003701        121.2968
1.98                    1.004239        119.9844
1.984                   1.003729          118.68
1.988                   1.002271        117.4072
1.992                    1.00012        116.1854
1.996                  0.9976423        115.0267
2                      0.9952566        113.9337
2.004                  0.9933615        112.8993
2.008                  0.9922684        111.9075
2.012                  0.9921482        110.9365
2.016                  0.9930032        109.9622
2.02                   0.9946687         108.963
2.024                  0.9968458        107.9231
2.028                  0.9991542        106.8355
2.032                     1.0012        105.7024
2.036                   1.002642        104.5349
2.04                    1.003244        103.3506
2.044                   1.002916        102.1705
2.048                   1.001723         101.016
2.052                  0.9998722         99.9051
2.056                  0.9976798        98.84959
2.06                   0.9955163        97.85312
2.064                  0.9937446         96.9105
2.068                  0.9926575         96.0084
2.072                  0.9924278        95.12774
2.076                  0.9930791        94.24706
2.08                   0.9944834        93.34635
2.084                  0.9963861        92.41057
2.088                   0.998452        91.43215
2.092                   1.000325        90.41197
2.096                   1.001686        89.35896
2.1                     1.002309        88.28835
2.104                   1.002093        87.21901
2.108                    1.00108        86.17032
2.112                  0.9994425        85.15916
2.116                  0.9974572        84.19704
2.12                   0.9954573        83.28821
2.124                  0.9937763         82.4289
2.128                  0.9926911        81.60779
2.132                  0.9923745        80.80802
2.136                  0.9928655        80.01009
2.14                   0.9940649        79.19541
2.144                  0.9957533        78.34949
2.148                  0.9976312        77.46439
2.152                  0.9993717        76.53985
2.156                   1.000676        75.58305
2.16                    1.001321        74.60731
2.164                   1.001198        73.62965
2.168                   1.000325        72.66808
2.172                  0.9988464        71.73859
2.176                  0.9970052        70.85272
2.18                   0.9951044        70.01546
2.184                  0.9934566        69.22441
2.188                  0.9923299        68.47014
2.192                  0.9919032        67.73762
2.196                  0.9922356        67.00892
2.2                    0.9932569         66.2663
2.204                  0.9947808        65.49527
2.208                  0.9965381        64.68704
2.212                  0.9982227        63.83987
2.216                  0.9995435        62.95911
2.22                    1.000271        62.05616
2.224                   1.000276        61.14656
2.228                  0.9995458        60.24743
2.232                  0.9981887        59.37474
2.236                  0.9964159        58.54082
2.24                   0.9945072         57.7523
2.244                   0.992766        57.00892
2.248                  0.9914699        56.30339
2.252                  0.9908234        55.62256
2.256                  0.9909248         54.9494
2.26                   0.9917473        54.26604
2.264                  0.9931449        53.55661
2.268                  0.9948753        52.81001
2.272                    0.99664        52.02157
2.276                  0.9981322        51.19381
2.28                   0.9990859        50.33582
2.284                  0.9993176         49.4619
2.288                  0.9987549        48.58931
2.292                  0.9974498        47.73567
2.296                  0.9955724        46.91633
2.3                    0.9933875        46.14194
2.304                  0.9912164        45.41646
2.308                  0.9893876         44.7363
2.312                  0.9881849        44.09043
2.316                  0.9877995        43.46174
2.32                   0.9882945        42.82962
2.324                  0.9895911        42.17317
2.328                  0.9914736         41.4746
2.332                  0.9936198        40.72214
2.336                  0.9956469        39.91199
2.34                   0.9971666         39.0491
2.344                  0.9978457        38.14661
2.348                  0.9974571        37.22418
2.352                  0.9959204        36.30556