! TOUCHSTONE file generated by CST MICROWAVE STUDIO
! Date and time: Tue Jun  7 20:32:30 2022
! Project name: AppElm_antenne_patch_FR4.cst
! Parameters = {L=45; W=58.5; e=0.035; h=1.6; lambda=0.190476; ls=120; w0=1.6; w1=0.533333; ws=120; y0=19; y1=23.8095}
! Header version: 2018
! Port assignment regex: !\s*Touchstone port\s*([0-9]+)\s*=\s*(CST MWS port|CST DS port)\s*([0-9]+|Zmin|Zmax)\s*\(\"(.*)\"\)(\s*mode\s*([0-9]+))?.*
! Touchstone port assignment:
! Touchstone port 1 = CST MWS port 1 ("")
# GHz S MA R 50
0                      0.9893062              -0
0.004                  0.9899485       -9.931244
0.008                  0.9917865       -19.77485
0.012                  0.9945673       -29.44748
0.016                  0.9979127       -38.87366
0.02                    1.001376       -47.98826
0.024                   1.004505       -56.73765
0.028                   1.006906       -65.07988
0.032                   1.008294       -72.98415
0.036                   1.008528       -80.43016
0.04                    1.007625       -87.40758
0.044                   1.005755       -93.91578
0.048                   1.003213       -99.96376
0.052                   1.000378       -105.5701
0.056                  0.9976565       -110.7629
0.06                    0.995427       -115.5783
0.064                  0.9939822       -120.0589
0.068                  0.9934898       -124.2506
0.072                  0.9939699       -128.1997
0.076                  0.9952984       -131.9484
0.08                   0.9972305       -135.5325
0.084                  0.9994444       -138.9788
0.088                   1.001593       -142.3047
0.092                   1.003358       -145.5181
0.096                   1.004495       -148.6199
0.1                     1.004864       -151.6054
0.104                   1.004452       -154.4677
0.108                   1.003361       -157.2001
0.112                   1.001793       -159.7986
0.116                   1.000017        -162.264
0.12                   0.9983237       -164.6026
0.124                  0.9969781       -166.8268
0.128                  0.9961814       -168.9535
0.132                  0.9960391       -171.0027
0.136                  0.9965473       -172.9947
0.14                   0.9975975       -174.9478
0.144                  0.9989975        -176.876
0.148                   1.000507       -178.7877
0.152                   1.001877        179.3151
0.156                   1.002892        177.4359
0.16                      1.0034        175.5827
0.164                   1.003337        173.7657
0.168                   1.002733        171.9958
0.172                   1.001705         170.282
0.176                   1.000435          168.63
0.18                   0.9991386        167.0406
0.184                  0.9980322          165.51
0.188                  0.9972936        164.0296
0.192                  0.9970351        162.5876
0.196                  0.9972863        161.1704
0.2                    0.9979903        159.7654
0.204                  0.9990166        158.3624
0.208                   1.000184        156.9551
0.212                   1.001293        155.5419
0.216                    1.00216         154.126
0.22                    1.002644        152.7142
0.224                   1.002675         151.316
0.228                   1.002256        149.9415
0.232                   1.001467        148.5995
0.236                   1.000449        147.2966
0.24                   0.9993762        146.0352
0.244                  0.9984318        144.8139
0.248                  0.9977729        143.6268
0.252                   0.997506        142.4651
0.256                  0.9976685        141.3183
0.26                    0.998225        140.1758
0.264                  0.9990728        139.0292
0.268                   1.000062        137.8728
0.272                   1.001021        136.7054
0.276                   1.001787        135.5294
0.28                    1.002232        134.3509
0.284                   1.002286        133.1783
0.288                   1.001945        132.0207
0.292                   1.001271        130.8866
0.296                   1.000385        129.7823
0.3                    0.9994404        128.7106
0.304                  0.9985996        127.6707
0.308                  0.9980057        126.6579
0.312                  0.9977584        125.6648
0.316                  0.9978964        124.6821
0.32                   0.9983913        123.7006
0.324                  0.9991537        122.7125
0.328                   1.000049        121.7128
0.332                   1.000921        120.7002
0.336                    1.00162         119.677
0.34                    1.002028        118.6489
0.344                   1.002076        117.6236
0.348                   1.001761        116.6097
0.352                   1.001138        115.6151
0.356                   1.000318         114.646
0.36                   0.9994435         113.705
0.364                  0.9986673        112.7916
0.368                  0.9981235        111.9015
0.372                  0.9979051        111.0277
0.376                  0.9980486        110.1618
0.38                   0.9985268        109.2949
0.384                  0.9992543        108.4198
0.388                   1.000103         107.532
0.392                   1.000925        106.6304
0.396                   1.001577        105.7172
0.4                     1.001948         104.798
0.404                   1.001973        103.8803
0.408                    1.00165        102.9724
0.412                   1.001037        102.0821
0.416                   1.000241        101.2149
0.42                   0.9994011        100.3736
0.424                  0.9986644        99.55742
0.428                    0.99816        98.76214
0.432                  0.9979755        97.98088
0.436                   0.998143        97.20524
0.44                   0.9986323         96.4269
0.444                  0.9993567        95.63889
0.448                   1.000189          94.837
0.452                   1.000982        94.02032
0.456                   1.001598        93.19152
0.46                    1.001929        92.35619
0.464                   1.001917        91.52192
0.468                   1.001564        90.69697
0.472                   1.000932        89.88888
0.476                   1.000131        89.10308
0.48                   0.9993009        88.34195
0.484                  0.9985884        87.60443
0.488                  0.9981185        86.88604
0.492                  0.9979744        86.17973
0.496                  0.9981817        85.47704
0.5                    0.9987039        84.76973
0.504                  0.9994487        84.05106
0.508                   1.000285        83.31717
0.512                   1.001064        82.56754
0.516                    1.00165        81.80527
0.52                    1.001938        81.03627
0.524                   1.001876        80.26845
0.528                   1.001475        79.51013
0.532                   1.000802        78.76881
0.536                  0.9999769        78.04967
0.54                   0.9991427        77.35472
0.544                  0.9984472        76.68239
0.548                  0.9980139        76.02775
0.552                  0.9979201        75.38333
0.556                  0.9981839        74.74046
0.56                   0.9987592        74.09079
0.564                  0.9995445        73.42782
0.568                   1.000401        72.74803
0.572                   1.001177        72.05148
0.576                   1.001735         71.3418
0.58                    1.001974        70.62552
0.584                   1.001851        69.91092
0.588                   1.001385         69.2066
0.592                   1.000656        68.51999
0.596                  0.9997919        67.85603
0.6                    0.9989444        67.21624
0.604                  0.9982641        66.59843
0.608                  0.9978729        65.99698
0.612                  0.9978423        65.40382
0.616                  0.9981795         64.8099
0.62                    0.998826        64.20675
0.624                  0.9996685        63.58803
0.628                   1.000557        62.95072
0.632                   1.001335        62.29551
0.636                   1.001862        61.62684
0.64                    1.002043        60.95193
0.644                   1.001844        60.27965
0.648                   1.001296        59.61893
0.652                   1.000494        58.97719
0.656                  0.9995788        58.35905
0.66                   0.9987115        57.76541
0.664                  0.9980471        57.19327
0.668                  0.9977062        56.63613
0.672                  0.9977519         56.0852
0.676                  0.9981789        55.53089
0.68                   0.9989134        54.96456
0.684                  0.9998258        54.38014
0.688                   1.000754        53.77513
0.692                   1.001533         53.1511
0.696                   1.002022        52.51342
0.7                     1.002131        51.87021
0.704                   1.001837        51.23105
0.708                   1.001189        50.60524
0.712                   1.000297        50.00019
0.716                  0.9993187        49.42009
0.72                   0.9984272        48.86508
0.724                  0.9977827        48.33115
0.728                  0.9975029        47.81076
0.732                  0.9976409        47.29418
0.736                  0.9981755        46.77123
0.74                   0.9990142         46.2331
0.744                   1.000008        45.67402
0.748                   1.000981        45.09222
0.752                   1.001757        44.49032
0.756                   1.002196        43.87478
0.76                    1.002216        43.25482
0.764                   1.001807        42.64082
0.768                   1.001038         42.0425
0.772                   1.000041        41.46723
0.776                  0.9989911        40.91863
0.78                   0.9980751        40.39589
0.784                  0.9974589        39.89375
0.788                  0.9972557        39.40345
0.792                  0.9975064        38.91416
0.796                    0.99817        38.41503
0.8                    0.9991305        37.89713
0.804                   1.000218        37.35508
0.808                   1.001238        36.78805
0.812                   1.002006        36.19987
0.816                   1.002382        35.59837
0.82                    1.002292        34.99401
0.824                   1.001747         34.3981
0.828                   1.000836        33.82078
0.832                  0.9997188        33.26927
0.836                  0.9985907         32.7465
0.84                   0.9976539        32.25044
0.844                  0.9970788        31.77441
0.848                  0.9969734        31.30812
0.852                  0.9973616        30.83953
0.856                  0.9981789        30.35707
0.86                   0.9992823        29.85169
0.864                   1.000475        29.31864
0.868                   1.001545        28.75817
0.872                   1.002296        28.17562
0.876                    1.00259        27.58043
0.88                    1.002367        26.98449
0.884                   1.001659        26.40011
0.888                   1.000584        25.83789
0.892                  0.9993302        25.30478
0.896                  0.9981181         24.8028
0.9                    0.9971665        24.32845
0.904                    0.99665        23.87329
0.908                  0.9966676         23.4253
0.912                   0.997223        22.97104
0.916                  0.9982223        22.49816
0.92                   0.9994903        21.99764
0.924                   1.000801        21.46546
0.928                    1.00192        20.90332
0.932                   1.002641        20.31834
0.936                   1.002829        19.72182
0.94                    1.002442        19.12729
0.944                   1.001539        18.54821
0.948                   1.000272        17.99559
0.952                  0.9988625          17.476
0.956                  0.9975599        16.99026
0.96                   0.9966009         16.5331
0.964                  0.9961635        16.09396
0.968                  0.9963344        15.65877
0.972                  0.9970915        15.21253
0.976                  0.9983057        14.74207
0.98                   0.9997632        14.23849
0.984                   1.001204        13.69879
0.988                   1.002368        13.12641
0.992                   1.003041        12.53062
0.996                   1.003093        11.92494
1                       1.002503        11.32478
1.004                   1.001365        10.74487
1.008                  0.9998698        10.19662
1.012                  0.9982797        9.686032
1.016                  0.9968782        9.212432
1.02                   0.9959207        8.768351
1.024                  0.9955878        8.340673
1.028                  0.9959497        7.912928
1.032                  0.9969513        7.468305
1.036                  0.9984208        6.992771
1.04                    1.000099        6.477686
1.044                   1.001685        5.921384
1.048                   1.002891        5.329455
1.052                   1.003493        4.713777
1.056                   1.003369        4.090476
1.06                    1.002527        3.477205
1.064                   1.001101         2.89012
1.068                  0.9993322        2.341034
1.072                  0.9975309        1.835167
1.076                  0.9960195        1.369947
1.08                   0.9950757       0.9351689
1.084                  0.9948806       0.5146104
1.088                  0.9954827      0.08890273
1.092                   0.996786      -0.3608947
1.096                  0.9985656      -0.8497458
1.1                     1.000506       -1.385855
1.104                    1.00226       -1.969176
1.108                   1.003505       -2.591441
1.112                   1.004008       -3.237582
1.116                   1.003659       -3.888308
1.12                      1.0025       -4.523269
1.124                   1.000718       -5.124599
1.128                  0.9986149       -5.680123
1.132                  0.9965598       -6.185599
1.136                  0.9949225        -6.64603
1.14                   0.9940072       -7.075066
1.144                  0.9939943       -7.492814
1.148                  0.9949038       -7.922228
1.152                  0.9965875       -8.384835
1.156                  0.9987538       -8.896673
1.16                    1.001019       -9.465311
1.164                   1.002974        -10.0885
1.168                   1.004259       -10.75458
1.172                   1.004626       -11.44452
1.176                   1.003984       -12.13502
1.18                    1.002418       -12.80245
1.184                   1.000182       -13.42678
1.188                  0.9976548       -13.99527
1.192                  0.9952795       -14.50507
1.196                  0.9934871       -14.96426
1.2                    0.9926149       -15.39095
1.204                  0.9928425       -15.81024
1.208                  0.9941522       -16.24974
1.212                  0.9963285       -16.73427
1.216                  0.9989934       -17.28123
1.22                    1.001674       -17.89734
1.224                   1.003884       -18.57747
1.228                   1.005212       -19.30563
1.232                   1.005394       -20.05761
1.236                   1.004359       -20.80497
1.24                     1.00225       -21.51967
1.244                   0.999406       -22.17879
1.248                  0.9963073       -22.76877
1.252                  0.9934986       -23.28843
1.256                  0.9914923       -23.74992
1.26                   0.9906725       -24.17731
1.264                  0.9912186       -24.60253
1.268                  0.9930642        -25.0595
1.272                  0.9959036       -25.57765
1.276                  0.9992428       -26.17626
1.28                    1.002486       -26.86102
1.284                   1.005042       -27.62305
1.288                   1.006426       -28.44051
1.292                   1.006347       -29.28223
1.296                   1.004758       -30.11267
1.3                      1.00188       -30.89754
1.304                  0.9981652       -31.60959
1.308                  0.9942375       -32.23375
1.312                  0.9907857       -32.77079
1.316                  0.9884432        -33.2384
1.32                   0.9876671       -33.66913
1.324                  0.9886436       -34.10483
1.328                  0.9912426       -34.58887
1.332                  0.9950312       -35.15765
1.336                  0.9993479       -35.83369
1.34                    1.003419       -36.62152
1.344                   1.006491       -37.50717
1.348                   1.007966       -38.46065
1.352                     1.0075       -39.44075
1.356                   1.005073       -40.40134
1.36                    1.001006       -41.29836
1.364                  0.9959197       -42.09723
1.368                  0.9906519       -42.77955
1.372                  0.9861194       -43.34803
1.376                   0.983157       -43.82829
1.38                   0.9823547       -44.26596
1.384                   0.983929       -44.71908
1.388                  0.9876643       -45.24693
1.392                  0.9929364       -45.89827
1.396                  0.9988188       -46.70196
1.4                     1.004244         -47.662
1.404                   1.008184       -48.75742
1.408                   1.009829       -49.94604
1.412                   1.008722       -51.17088
1.416                   1.004847       -52.36827
1.42                   0.9986577       -53.47684
1.424                   0.991038       -54.44739
1.428                  0.9831866       -55.25268
1.432                  0.9764359       -55.89578
1.436                  0.9720178       -56.41412
1.44                   0.9708175       -56.87671
1.444                  0.9731688       -57.37302
1.448                  0.9787511       -57.99536
1.452                  0.9866173       -58.82012
1.456                   0.995351       -59.89301
1.46                    1.003307         -61.222
1.464                   1.008883       -62.77786
1.468                   1.010773       -64.49997
1.472                   1.008174       -66.30501
1.476                   1.000933       -68.09686
1.48                   0.9896206       -69.77778
1.484                  0.9755203       -71.26208
1.488                  0.9605193       -72.49258
1.492                  0.9468725       -73.45933
1.496                  0.9368363         -74.216
1.5                    0.9322066       -74.88527
1.504                  0.9338602       -75.64554
1.508                  0.9414427       -76.69801
1.512                   0.953315        -78.2257
1.516                   0.966774       -80.36101
1.52                    0.978448       -83.17281
1.524                  0.9847362       -86.67212
1.528                  0.9821908       -90.82759
1.532                     0.9678       -95.58273
1.536                  0.9391751       -100.8696
1.54                   0.8946581       -106.6183
1.544                  0.8333732       -112.7623
1.548                  0.7552351       -119.2418
1.552                  0.6609234       -126.0053
1.556                  0.5518304       -133.0132
1.56                   0.4299859       -140.2461
1.564                  0.2979622       -147.7406
1.568                  0.1587704       -155.8227
1.572                 0.01624824       -177.8789
1.576                  0.1280318         13.1429
1.58                   0.2684739        4.723925
1.584                  0.4025235       -2.887686
1.588                  0.5270501       -10.22735
1.592                  0.6393319       -17.35765
1.596                  0.7371581       -24.26601
1.6                    0.8189319       -30.91522
1.604                  0.8837543       -37.25491
1.608                  0.9314883         -43.225
1.612                  0.9627974       -48.75744
1.616                  0.9791543       -53.77859
1.62                   0.9828109       -58.21394
1.624                  0.9767139       -61.99654
1.628                  0.9643468       -65.08062
1.632                  0.9494693       -67.46012
1.636                  0.9357419       -69.18804
1.64                   0.9262581       -70.38809
1.644                  0.9230766        -71.2475
1.648                  0.9269011       -71.98589
1.652                  0.9370476       -72.80917
1.656                  0.9517192       -73.86813
1.66                   0.9684871       -75.23777
1.664                  0.9848084       -76.91982
1.668                  0.9984556       -78.85972
1.672                   1.007805       -80.96738
1.676                   1.011988       -83.13579
1.68                    1.010931       -85.25569
1.684                    1.00531       -87.22741
1.688                  0.9964251       -88.97161
1.692                  0.9860108       -90.43957
1.696                  0.9759758       -91.62213
1.7                    0.9681043       -92.55445
1.704                  0.9637543       -93.31291
1.708                  0.9636201       -94.00195
1.712                  0.9676216       -94.73293
1.716                  0.9749557       -95.60113
1.72                   0.9842922       -96.66828
1.724                  0.9940496       -97.95515
1.728                   1.002682       -99.44364
1.732                   1.008922       -101.0851
1.736                   1.011948       -102.8112
1.74                    1.011474       -104.5454
1.744                   1.007762       -106.2126
1.748                   1.001566       -107.7495
1.752                  0.9940105       -109.1126
1.756                  0.9864179       -110.2857
1.76                   0.9800936        -111.284
1.764                  0.9761079       -112.1528
1.768                  0.9751071       -112.9603
1.772                  0.9772027       -113.7847
1.776                  0.9819664       -114.6983
1.78                   0.9885295        -115.754
1.784                  0.9957585       -116.9773
1.788                   1.002465       -118.3642
1.792                   1.007599       -119.8852
1.796                   1.010408       -121.4919
1.8                     1.010532       -123.1257
1.804                   1.008044       -124.7263
1.808                   1.003425       -126.2398
1.812                   0.997488       -127.6262
1.816                  0.9912477       -128.8661
1.82                   0.9857618       -129.9642
1.824                  0.9819524       -130.9501
1.828                  0.9804461       -131.8733
1.832                   0.981465       -132.7946
1.836                  0.9847926       -133.7742
1.84                   0.9898251       -134.8603
1.844                  0.9956905       -136.0812
1.848                    1.00141       -137.4414
1.852                   1.006064        -138.923
1.856                   1.008934       -140.4903
1.86                    1.009606       -142.0962
1.864                   1.008024       -143.6893
1.868                   1.004488       -145.2213
1.872                  0.9996075       -146.6538
1.876                  0.9942046       -147.9644
1.88                   0.9891841       -149.1504
1.884                  0.9853852       -150.2305
1.888                  0.9834376       -151.2421
1.892                  0.9836514       -152.2351
1.896                  0.9859632       -153.2622
1.9                    0.9899552       -154.3691
1.904                  0.9949358       -155.5867
1.908                   1.000068       -156.9262
1.912                   1.004512       -158.3785
1.916                   1.007563       -159.9171
1.92                    1.008755       -161.5032
1.924                   1.007923       -163.0915
1.928                   1.005229       -164.6373
1.932                   1.001128       -166.1025
1.936                  0.9963025       -167.4614
1.94                   0.9915528       -168.7053
1.944                   0.987669       -169.8445
1.948                  0.9852971       -170.9074
1.952                  0.9848261       -171.9357
1.956                  0.9863199       -172.9771
1.96                   0.9895083       -174.0762
1.964                  0.9938394       -175.2665
1.968                  0.9985815       -176.5651
1.972                   1.002951       -177.9702
1.976                    1.00624        -179.463
1.98                    1.007928        178.9888
1.984                   1.007758        177.4258
1.988                   1.005769        175.8906
1.992                   1.002292        174.4215
1.996                  0.9978987        173.0474
2                      0.9933106        171.7825
2.004                  0.9892876        170.6236
2.008                  0.9864998        169.5497
2.012                  0.9854116        168.5254
2.016                  0.9861992        167.5068
2.02                   0.9887191        166.4497
2.024                  0.9925359        165.3176
2.028                  0.9970023        164.0882
2.032                   1.001373        162.7563
2.036                   1.004931        161.3344
2.04                    1.007098        159.8492
2.044                   1.007528        158.3374
2.048                   1.006152        156.8403
2.052                   1.003193        155.3972
2.056                  0.9991288        154.0399
2.06                   0.9946202         152.788
2.064                  0.9904102        151.6445
2.068                  0.9871998        150.5949
2.072                  0.9855284        149.6091
2.076                  0.9856769        148.6458
2.08                   0.9876168        147.6608
2.084                  0.9910143        146.6141
2.088                  0.9952918        145.4783
2.092                  0.9997299        144.2418
2.096                    1.00359         142.911
2.1                     1.006234        141.5078
2.104                   1.007226         140.066
2.108                   1.006396         138.626
2.112                   1.003864        137.2287
2.116                   1.000029        135.9095
2.12                   0.9955057         134.693
2.124                  0.9910326        133.5884
2.128                  0.9873522        132.5871
2.132                  0.9850852        131.6633
2.136                   0.984619        130.7779
2.14                   0.9860358        129.8854
2.144                  0.9890952        128.9423
2.148                  0.9932768        127.9149
2.152                  0.9978722        126.7854
2.156                   1.002108        125.5543
2.16                    1.005272        124.2389
2.164                    1.00683         122.871
2.168                   1.006502         121.491
2.172                   1.004313        120.1423
2.176                   1.000587        118.8647
2.18                   0.9959073        117.6887
2.184                   0.991024        116.6299
2.188                  0.9867416        115.6857
2.192                  0.9837813        114.8344
2.196                  0.9826531        114.0379
2.2                      0.98356        113.2483
2.204                  0.9863547        112.4168
2.208                  0.9905644        111.5023
2.212                  0.9954728        110.4795
2.216                   1.000244        109.3421
2.22                    1.004063        108.1033
2.224                   1.006266        106.7933
2.228                   1.006445         105.454
2.232                   1.004514        104.1327
2.236                   1.000723        102.8758
2.24                   0.9956316        101.7216
2.244                  0.9900323         100.694
2.248                  0.9848285        99.79727
2.252                  0.9808881        99.01406
2.256                  0.9788905         98.3064
2.26                   0.9791964        97.62172
2.264                  0.9817725        96.90223
2.268                  0.9861885        96.09596
2.272                  0.9916897        95.16627
2.276                  0.9973264        94.09802
2.28                    1.002114        92.89928
2.284                   1.005191        91.59924
2.288                   1.005954        90.24309
2.292                   1.004157        88.88566
2.296                  0.9999504         87.5838
2.3                    0.9938802        86.38846
2.304                  0.9868203        85.33664
2.308                  0.9798534        84.44393
2.312                  0.9741034        83.69928
2.316                  0.9705419        83.06374
2.32                   0.9698014        82.47517
2.324                  0.9720381        81.85857
2.328                  0.9768819        81.14038
2.332                  0.9834864        80.26248
2.336                  0.9906687        79.19264
2.34                   0.9971045        77.92883
2.344                   1.001537        76.49835
2.348                   1.002972        74.95255
2.352                   1.000823        73.35994