! TOUCHSTONE file generated by CST MICROWAVE STUDIO
! Date and time: Thu May 12 13:28:03 2022
! Project name: AppElm_antenne_dipole_FR4.cst
! Parameters = {e=0.035; f=2.45e+09; h=1.6; i=0.8; l1=15.31; L=29.58; lambda=122.449; ws=80; wl=1.7; ls=30}
! Header version: 2018
! Port assignment regex: !\s*Touchstone port\s*([0-9]+)\s*=\s*(CST MWS port|CST DS port)\s*([0-9]+|Zmin|Zmax)\s*\(\"(.*)\"\)(\s*mode\s*([0-9]+))?.*
! Touchstone port assignment:
! Touchstone port 1 = CST MWS port 1 ("")
# GHz S MA R 50
0                      0.9996634              -0
0.004                  0.9996591      -0.1005592
0.008                  0.9996457      -0.2010893
0.012                  0.9996235      -0.3015611
0.016                  0.9995925      -0.4019459
0.02                   0.9995529       -0.502215
0.024                   0.999505      -0.6023404
0.028                  0.9994486      -0.7022948
0.032                  0.9993842      -0.8020511
0.036                  0.9993117      -0.9015832
0.04                   0.9992319       -1.000866
0.044                  0.9991446       -1.099875
0.048                  0.9990503       -1.198587
0.052                  0.9989495       -1.296981
0.056                  0.9988424       -1.395034
0.06                   0.9987294       -1.492728
0.064                   0.998611       -1.590045
0.068                  0.9984874       -1.686968
0.072                  0.9983595       -1.783481
0.076                  0.9982275       -1.879572
0.08                    0.998092       -1.975228
0.084                  0.9979532        -2.07044
0.088                  0.9978119       -2.165199
0.092                  0.9976687       -2.259498
0.096                  0.9975239       -2.353333
0.1                    0.9973781       -2.446702
0.104                   0.997232       -2.539602
0.108                   0.997086       -2.632036
0.112                  0.9969406       -2.724006
0.116                  0.9967967       -2.815516
0.12                   0.9966542       -2.906575
0.124                  0.9965142        -2.99719
0.128                   0.996377       -3.087372
0.132                  0.9962433       -3.177133
0.136                  0.9961132       -3.266488
0.14                   0.9959875       -3.355452
0.144                  0.9958668       -3.444043
0.148                  0.9957512       -3.532282
0.152                  0.9956414       -3.620187
0.156                  0.9955378       -3.707783
0.16                   0.9954406       -3.795093
0.164                  0.9953503       -3.882143
0.168                  0.9952674       -3.968959
0.172                   0.995192       -4.055569
0.176                  0.9951244       -4.142002
0.18                   0.9950649       -4.228289
0.184                  0.9950139       -4.314459
0.188                  0.9949714       -4.400546
0.192                  0.9949376       -4.486581
0.196                  0.9949128       -4.572597
0.2                    0.9948967       -4.658629
0.204                  0.9948898       -4.744708
0.208                   0.994892       -4.830872
0.212                  0.9949033       -4.917151
0.216                  0.9949237       -5.003581
0.22                   0.9949529       -5.090198
0.224                  0.9949911       -5.177032
0.228                  0.9950381       -5.264118
0.232                  0.9950935        -5.35149
0.236                  0.9951575       -5.439178
0.24                   0.9952295       -5.527214
0.244                  0.9953095       -5.615631
0.248                   0.995397       -5.704455
0.252                  0.9954919       -5.793717
0.256                  0.9955938       -5.883443
0.26                   0.9957022       -5.973661
0.264                  0.9958168       -6.064394
0.268                  0.9959371       -6.155667
0.272                  0.9960627         -6.2475
0.276                  0.9961931       -6.339915
0.28                   0.9963279        -6.43293
0.284                  0.9964667        -6.52656
0.288                  0.9966087       -6.620824
0.292                  0.9967536       -6.715731
0.296                  0.9969006       -6.811297
0.3                    0.9970495       -6.907528
0.304                  0.9971995       -7.004434
0.308                  0.9973501       -7.102018
0.312                  0.9975009       -7.200285
0.316                  0.9976509       -7.299239
0.32                   0.9978001       -7.398876
0.324                  0.9979476       -7.499196
0.328                  0.9980928       -7.600195
0.332                  0.9982353       -7.701868
0.336                  0.9983746       -7.804203
0.34                   0.9985099       -7.907195
0.344                   0.998641        -8.01083
0.348                  0.9987671       -8.115097
0.352                  0.9988881       -8.219976
0.356                  0.9990032       -8.325456
0.36                   0.9991121       -8.431516
0.364                  0.9992144       -8.538138
0.368                  0.9993096         -8.6453
0.372                  0.9993973       -8.752977
0.376                  0.9994775       -8.861151
0.38                   0.9995493       -8.969794
0.384                   0.999613        -9.07888
0.388                  0.9996679       -9.188383
0.392                   0.999714       -9.298275
0.396                   0.999751       -9.408528
0.4                    0.9997789       -9.519111
0.404                  0.9997973           -9.63
0.408                  0.9998065       -9.741158
0.412                  0.9998059       -9.852559
0.416                  0.9997959       -9.964174
0.42                   0.9997764       -10.07597
0.424                  0.9997474       -10.18792
0.428                  0.9997091       -10.29998
0.432                  0.9996614       -10.41214
0.436                  0.9996046       -10.52436
0.44                   0.9995387       -10.63662
0.444                  0.9994641       -10.74888
0.448                  0.9993811       -10.86112
0.452                  0.9992898        -10.9733
0.456                  0.9991907       -11.08542
0.46                   0.9990841       -11.19743
0.464                  0.9989701       -11.30932
0.468                  0.9988493       -11.42106
0.472                  0.9987223       -11.53264
0.476                  0.9985893       -11.64404
0.48                   0.9984507       -11.75523
0.484                  0.9983072       -11.86621
0.488                  0.9981594       -11.97695
0.492                  0.9980076       -12.08745
0.496                  0.9978524       -12.19769
0.5                    0.9976944       -12.30767
0.504                  0.9975342       -12.41738
0.508                  0.9973722       -12.52682
0.512                  0.9972091       -12.63597
0.516                  0.9970457       -12.74485
0.52                   0.9968824       -12.85345
0.524                  0.9967198       -12.96178
0.528                  0.9965586       -13.06984
0.532                  0.9963993       -13.17764
0.536                  0.9962425        -13.2852
0.54                   0.9960888       -13.39251
0.544                  0.9959389       -13.49961
0.548                  0.9957932        -13.6065
0.552                  0.9956523        -13.7132
0.556                  0.9955168       -13.81974
0.56                   0.9953872       -13.92613
0.564                  0.9952639        -14.0324
0.568                  0.9951474       -14.13858
0.572                  0.9950383       -14.24469
0.576                  0.9949368       -14.35077
0.58                   0.9948434       -14.45684
0.584                  0.9947587       -14.56294
0.588                  0.9946827        -14.6691
0.592                  0.9946158       -14.77535
0.596                  0.9945583       -14.88174
0.6                    0.9945105        -14.9883
0.604                  0.9944725       -15.09506
0.608                  0.9944446       -15.20208
0.612                  0.9944269       -15.30937
0.616                  0.9944194         -15.417
0.62                   0.9944221       -15.52499
0.624                  0.9944352       -15.63339
0.628                  0.9944587       -15.74224
0.632                  0.9944923       -15.85158
0.636                   0.994536       -15.96145
0.64                     0.99459       -16.07189
0.644                  0.9946535       -16.18294
0.648                  0.9947268       -16.29464
0.652                  0.9948094       -16.40703
0.656                   0.994901       -16.52015
0.66                   0.9950015       -16.63403
0.664                  0.9951104       -16.74871
0.668                  0.9952273       -16.86422
0.672                  0.9953517        -16.9806
0.676                  0.9954834       -17.09788
0.68                   0.9956217       -17.21609
0.684                  0.9957661       -17.33525
0.688                  0.9959162        -17.4554
0.692                  0.9960714       -17.57655
0.696                  0.9962309       -17.69874
0.7                    0.9963946       -17.82199
0.704                  0.9965613        -17.9463
0.708                  0.9967309       -18.07171
0.712                  0.9969022       -18.19822
0.716                  0.9970752       -18.32584
0.72                   0.9972488        -18.4546
0.724                  0.9974224       -18.58449
0.728                  0.9975954       -18.71552
0.732                  0.9977671        -18.8477
0.736                  0.9979367       -18.98102
0.74                   0.9981038       -19.11549
0.744                  0.9982675       -19.25111
0.748                  0.9984274       -19.38786
0.752                  0.9985827       -19.52574
0.756                  0.9987328       -19.66475
0.76                    0.998877       -19.80486
0.764                  0.9990149       -19.94607
0.768                  0.9991457       -20.08836
0.772                   0.999269       -20.23172
0.776                  0.9993842       -20.37612
0.78                    0.999491       -20.52155
0.784                  0.9995887       -20.66797
0.788                   0.999677       -20.81537
0.792                  0.9997553       -20.96372
0.796                  0.9998234         -21.113
0.8                    0.9998808       -21.26318
0.804                  0.9999274       -21.41422
0.808                  0.9999629        -21.5661
0.812                   0.999987       -21.71879
0.816                  0.9999994       -21.87226
0.82                           1       -22.02646
0.824                   0.999989       -22.18138
0.828                  0.9999658       -22.33697
0.832                  0.9999307       -22.49321
0.836                  0.9998838       -22.65006
0.84                    0.999825       -22.80749
0.844                  0.9997544       -22.96546
0.848                  0.9996722       -23.12395
0.852                  0.9995785       -23.28292
0.856                  0.9994737       -23.44234
0.86                   0.9993577       -23.60218
0.864                  0.9992313       -23.76241
0.868                  0.9990945         -23.923
0.872                  0.9989479       -24.08393
0.876                  0.9987917       -24.24517
0.88                   0.9986265       -24.40669
0.884                  0.9984529       -24.56847
0.888                  0.9982711       -24.73051
0.892                   0.998082       -24.89275
0.896                  0.9978859       -25.05521
0.9                    0.9976837       -25.21786
0.904                  0.9974758       -25.38069
0.908                  0.9972628        -25.5437
0.912                  0.9970459       -25.70685
0.916                  0.9968251       -25.87017
0.92                   0.9966017       -26.03364
0.924                  0.9963761       -26.19726
0.928                  0.9961491       -26.36103
0.932                  0.9959215       -26.52496
0.936                   0.995694       -26.68907
0.94                   0.9954675       -26.85334
0.944                  0.9952427       -27.01781
0.948                  0.9950201       -27.18249
0.952                  0.9948009       -27.34739
0.956                  0.9945856       -27.51254
0.96                    0.994375       -27.67794
0.964                  0.9941696       -27.84369
0.968                  0.9939704       -28.00975
0.972                  0.9937779       -28.17616
0.976                   0.993593       -28.34295
0.98                    0.993416       -28.51024
0.984                  0.9932478       -28.67796
0.988                  0.9930889        -28.8462
0.992                  0.9929398       -29.01499
0.996                  0.9928009       -29.18443
1                       0.992673        -29.3545
1.004                  0.9925563       -29.52531
1.008                  0.9924514       -29.69686
1.012                  0.9923583       -29.86925
1.016                  0.9922778       -30.04252
1.02                   0.9922097       -30.21672
1.024                  0.9921547        -30.3919
1.028                  0.9921126       -30.56817
1.032                  0.9920837       -30.74554
1.036                   0.992068       -30.92411
1.04                   0.9920656        -31.1039
1.044                  0.9920764       -31.28501
1.048                  0.9921005       -31.46746
1.052                  0.9921375       -31.65138
1.056                  0.9921875       -31.83679
1.06                   0.9922501       -32.02377
1.064                  0.9923251       -32.21233
1.068                  0.9924122       -32.40262
1.072                   0.992511       -32.59464
1.076                   0.992621       -32.78847
1.08                   0.9927418        -32.9842
1.084                  0.9928729       -33.18178
1.088                  0.9930138       -33.38142
1.092                  0.9931636       -33.58304
1.096                  0.9933222       -33.78677
1.1                    0.9934883       -33.99263
1.104                  0.9936616       -34.20071
1.108                  0.9938413         -34.411
1.112                  0.9940265       -34.62355
1.116                  0.9942165       -34.83846
1.12                   0.9944104       -35.05574
1.124                  0.9946074       -35.27543
1.128                  0.9948065       -35.49753
1.132                  0.9950068       -35.72211
1.136                  0.9952077       -35.94919
1.14                    0.995408        -36.1788
1.144                  0.9956066       -36.41095
1.148                   0.995803       -36.64568
1.152                   0.995996       -36.88301
1.156                  0.9961846       -37.12294
1.16                    0.996368       -37.36549
1.164                  0.9965453       -37.61068
1.168                  0.9967154        -37.8585
1.172                  0.9968776       -38.10897
1.176                  0.9970309       -38.36209
1.18                   0.9971744       -38.61785
1.184                  0.9973074       -38.87626
1.188                  0.9974289       -39.13732
1.192                  0.9975384       -39.40099
1.196                  0.9976348       -39.66731
1.2                    0.9977174       -39.93623
1.204                  0.9977857       -40.20775
1.208                  0.9978391       -40.48185
1.212                  0.9978767       -40.75853
1.216                  0.9978982       -41.03775
1.22                   0.9979028       -41.31951
1.224                  0.9978906       -41.60377
1.228                  0.9978605       -41.89051
1.232                  0.9978124       -42.17973
1.236                  0.9977463       -42.47139
1.24                   0.9976613       -42.76546
1.244                  0.9975577       -43.06192
1.248                  0.9974351       -43.36075
1.252                  0.9972935       -43.66192
1.256                  0.9971329       -43.96542
1.26                   0.9969531       -44.27121
1.264                  0.9967546       -44.57927
1.268                   0.996537       -44.88957
1.272                  0.9963008        -45.2021
1.276                  0.9960463       -45.51685
1.28                   0.9957737       -45.83377
1.284                  0.9954834       -46.15287
1.288                  0.9951758       -46.47412
1.292                  0.9948512       -46.79751
1.296                  0.9945108       -47.12302
1.3                    0.9941542       -47.45065
1.304                  0.9937826        -47.7804
1.308                  0.9933967       -48.11226
1.312                  0.9929971       -48.44622
1.316                  0.9925846       -48.78228
1.32                   0.9921599       -49.12048
1.324                  0.9917239       -49.46079
1.328                  0.9912777       -49.80323
1.332                  0.9908219       -50.14783
1.336                  0.9903574       -50.49461
1.34                   0.9898856       -50.84358
1.344                  0.9894073       -51.19476
1.348                  0.9889232       -51.54822
1.352                  0.9884347       -51.90398
1.356                  0.9879427       -52.26206
1.36                   0.9874483       -52.62253
1.364                  0.9869524       -52.98544
1.368                  0.9864565       -53.35083
1.372                  0.9859611       -53.71879
1.376                  0.9854676       -54.08935
1.38                   0.9849768       -54.46261
1.384                    0.98449       -54.83863
1.388                  0.9840079        -55.2175
1.392                  0.9835319       -55.59928
1.396                  0.9830626       -55.98409
1.4                     0.982601       -56.37202
1.404                   0.982148       -56.76317
1.408                  0.9817045       -57.15761
1.412                  0.9812714       -57.55549
1.416                  0.9808492       -57.95692
1.42                   0.9804387       -58.36199
1.424                  0.9800407       -58.77085
1.428                  0.9796558       -59.18361
1.432                  0.9792844        -59.6004
1.436                  0.9789271       -60.02136
1.44                   0.9785842       -60.44664
1.444                  0.9782561       -60.87635
1.448                  0.9779431       -61.31065
1.452                  0.9776454       -61.74969
1.456                  0.9773633       -62.19361
1.46                   0.9770966       -62.64257
1.464                  0.9768454       -63.09672
1.468                  0.9766095       -63.55622
1.472                   0.976389       -64.02122
1.476                  0.9761834       -64.49188
1.48                   0.9759925       -64.96837
1.484                  0.9758157       -65.45084
1.488                  0.9756527       -65.93946
1.492                   0.975503       -66.43439
1.496                  0.9753655       -66.93581
1.5                      0.97524       -67.44384
1.504                  0.9751255       -67.95867
1.508                  0.9750212       -68.48047
1.512                   0.974926       -69.00939
1.516                  0.9748389       -69.54558
1.52                   0.9747591       -70.08921
1.524                   0.974685       -70.64045
1.528                  0.9746158       -71.19942
1.532                    0.97455       -71.76631
1.536                  0.9744864       -72.34125
1.54                   0.9744236        -72.9244
1.544                  0.9743602       -73.51588
1.548                  0.9742945       -74.11587
1.552                  0.9742252       -74.72452
1.556                  0.9741508       -75.34191
1.56                   0.9740698       -75.96823
1.564                  0.9739803       -76.60359
1.568                  0.9738808       -77.24811
1.572                  0.9737699       -77.90192
1.576                  0.9736455       -78.56516
1.58                   0.9735064       -79.23794
1.584                  0.9733506       -79.92037
1.588                  0.9731766       -80.61255
1.592                  0.9729826       -81.31461
1.596                   0.972767       -82.02665
1.6                    0.9725282       -82.74876
1.604                  0.9722648       -83.48104
1.608                  0.9719749       -84.22359
1.612                  0.9716571        -84.9765
1.616                  0.9713097       -85.73984
1.62                   0.9709315        -86.5137
1.624                  0.9705207       -87.29816
1.628                  0.9700763        -88.0933
1.632                  0.9695968       -88.89918
1.636                  0.9690809       -89.71588
1.64                   0.9685274       -90.54346
1.644                  0.9679351       -91.38196
1.648                  0.9673031       -92.23147
1.652                  0.9666302       -93.09202
1.656                  0.9659156       -93.96369
1.66                   0.9651584       -94.84648
1.664                  0.9643579       -95.74046
1.668                  0.9635133       -96.64568
1.672                  0.9626241       -97.56219
1.676                  0.9616899       -98.48997
1.68                   0.9607102        -99.4291
1.684                  0.9596847       -100.3796
1.688                  0.9586134       -101.3414
1.692                  0.9574958       -102.3147
1.696                  0.9563322       -103.2993
1.7                    0.9551229       -104.2954
1.704                  0.9538677        -105.303
1.708                  0.9525673        -106.322
1.712                  0.9512218       -107.3524
1.716                  0.9498319       -108.3943
1.72                   0.9483983       -109.4476
1.724                  0.9469218       -110.5124
1.728                  0.9454032       -111.5886
1.732                  0.9438434       -112.6761
1.736                  0.9422437       -113.7751
1.74                   0.9406052       -114.8855
1.744                  0.9389293       -116.0071
1.748                  0.9372171       -117.1401
1.752                  0.9354704       -118.2843
1.756                  0.9336907       -119.4398
1.76                   0.9318797       -120.6064
1.764                  0.9300395       -121.7841
1.768                  0.9281715       -122.9729
1.772                  0.9262779       -124.1726
1.776                  0.9243608       -125.3833
1.78                   0.9224224       -126.6048
1.784                  0.9204649        -127.837
1.788                  0.9184906       -129.0799
1.792                   0.916502       -130.3334
1.796                  0.9145011       -131.5973
1.8                    0.9124909       -132.8716
1.804                  0.9104735       -134.1561
1.808                  0.9084521       -135.4507
1.812                  0.9064288       -136.7553
1.816                  0.9044063       -138.0696
1.82                   0.9023876       -139.3936
1.824                  0.9003754       -140.7271
1.828                  0.8983723       -142.0699
1.832                  0.8963808       -143.4219
1.836                  0.8944044       -144.7828
1.84                   0.8924451       -146.1525
1.844                  0.8905061       -147.5306
1.848                    0.88859       -148.9171
1.852                  0.8866997       -150.3118
1.856                  0.8848373       -151.7142
1.86                    0.883006       -153.1242
1.864                  0.8812082       -154.5416
1.868                  0.8794464       -155.9661
1.872                  0.8777228       -157.3973
1.876                  0.8760403        -158.835
1.88                   0.8744009        -160.279
1.884                  0.8728069       -161.7288
1.888                  0.8712604       -163.1842
1.892                  0.8697634       -164.6448
1.896                   0.868318       -166.1104
1.9                    0.8669257       -167.5805
1.904                  0.8655886       -169.0548
1.908                  0.8643079        -170.533
1.912                  0.8630854       -172.0147
1.916                  0.8619224       -173.4995
1.92                   0.8608198        -174.987
1.924                  0.8597788       -176.4769
1.928                  0.8588004       -177.9688
1.932                  0.8578852       -179.4622
1.936                  0.8570339        179.0431
1.94                    0.856247        177.5478
1.944                  0.8555247         176.052
1.948                  0.8548672        174.5562
1.952                  0.8542746        173.0609
1.956                  0.8537467        171.5664
1.96                   0.8532831        170.0731
1.964                  0.8528834        168.5815
1.968                  0.8525471         167.092
1.972                  0.8522735        165.6048
1.976                  0.8520615        164.1206
1.98                   0.8519104        162.6395
1.984                  0.8518188         161.162
1.988                  0.8517854        159.6886
1.992                  0.8518091        158.2195
1.996                  0.8518881        156.7551
2                      0.8520207        155.2959
2.004                  0.8522056        153.8421
2.008                  0.8524405        152.3941
2.012                  0.8527238        150.9523
2.016                  0.8530532         149.517
2.02                   0.8534267        148.0884
2.024                  0.8538423         146.667
2.028                  0.8542977         145.253
2.032                  0.8547904        143.8467
2.036                  0.8553186        142.4485
2.04                   0.8558793        141.0585
2.044                  0.8564704        139.6771
2.048                  0.8570894        138.3045
2.052                  0.8577338        136.9409
2.056                  0.8584014        135.5866
2.06                   0.8590895        134.2419
2.064                  0.8597959        132.9069
2.068                  0.8605177        131.5818
2.072                   0.861253        130.2668
2.076                  0.8619989        128.9622
2.08                   0.8627535        127.6681
2.084                  0.8635142        126.3847
2.088                  0.8642791        125.1121
2.092                  0.8650456        123.8505
2.096                  0.8658115        122.6001
2.1                    0.8665749        121.3609
2.104                   0.867334        120.1331
2.108                  0.8680863        118.9167
2.112                  0.8688305        117.7121
2.116                  0.8695645        116.5191
2.12                   0.8702866        115.3379
2.124                  0.8709953        114.1687
2.128                   0.871689        113.0114
2.132                  0.8723664        111.8661
2.136                  0.8730261         110.733
2.14                    0.873667        109.6121
2.144                  0.8742879        108.5033
2.148                  0.8748878        107.4069
2.152                  0.8754659        106.3227
2.156                  0.8760213        105.2509
2.16                   0.8765534        104.1915
2.164                  0.8770615        103.1444
2.168                  0.8775455        102.1098
2.172                  0.8780047        101.0875
2.176                  0.8784389        100.0777
2.18                   0.8788481        99.08033
2.184                  0.8792324        98.09535
2.188                  0.8795917        97.12276
2.192                  0.8799262        96.16257
2.196                  0.8802362        95.21472
2.2                    0.8805222        94.27919
2.204                  0.8807845        93.35598
2.208                  0.8810238        92.44501
2.212                  0.8812408        91.54626
2.216                  0.8814362        90.65966
2.22                   0.8816108        89.78518
2.224                  0.8817657        88.92275
2.228                  0.8819017        88.07229
2.232                  0.8820199        87.23374
2.236                  0.8821215        86.40704
2.24                   0.8822077        85.59206
2.244                  0.8822796        84.78878
2.248                  0.8823388        83.99705
2.252                  0.8823863        83.21678
2.256                  0.8824238        82.44789
2.26                   0.8824525        81.69027
2.264                   0.882474        80.94379
2.268                  0.8824899        80.20831
2.272                  0.8825014        79.48375
2.276                  0.8825101        78.76996
2.28                   0.8825176        78.06679
2.284                  0.8825256        77.37412
2.288                  0.8825351        76.69179
2.292                  0.8825481        76.01966
2.296                  0.8825659        75.35755
2.3                    0.8825901        74.70534
2.304                   0.882622        74.06281
2.308                  0.8826629        73.42984
2.312                  0.8827145        72.80623
2.316                  0.8827781         72.1918
2.32                   0.8828545         71.5864
2.324                  0.8829454         70.9898
2.328                   0.883052        70.40184
2.332                  0.8831751        69.82233
2.336                  0.8833159        69.25104
2.34                   0.8834755        68.68781
2.344                  0.8836544        68.13243
2.348                  0.8838538        67.58468
2.352                  0.8840743        67.04438