! TOUCHSTONE file generated by CST MICROWAVE STUDIO
! Date and time: Thu May 12 18:27:54 2022
! Project name: AppElm_antenne_dipole_FR4.cst
! Parameters = {L=38.8; e=0.035; f=2.45e+09; h=1.6; i=0.8; l1=4; lambda=122.449; ls=25.5; wl=1.7; ws=80}
! Header version: 2018
! Port assignment regex: !\s*Touchstone port\s*([0-9]+)\s*=\s*(CST MWS port|CST DS port)\s*([0-9]+|Zmin|Zmax)\s*\(\"(.*)\"\)(\s*mode\s*([0-9]+))?.*
! Touchstone port assignment:
! Touchstone port 1 = CST MWS port 1 ("")
# GHz S MA R 50
0                      0.9999191              -0
0.004                  0.9999187      -0.0550694
0.008                  0.9999179      -0.1101381
0.012                  0.9999166      -0.1652053
0.016                  0.9999146      -0.2202704
0.02                    0.999912      -0.2753327
0.024                  0.9999089      -0.3303913
0.028                  0.9999053      -0.3854457
0.032                  0.9999011      -0.4404951
0.036                  0.9998963       -0.495539
0.04                   0.9998911      -0.5505766
0.044                  0.9998853      -0.6056072
0.048                   0.999879      -0.6606304
0.052                  0.9998722      -0.7156452
0.056                  0.9998648      -0.7706515
0.06                   0.9998571      -0.8256483
0.064                  0.9998488      -0.8806354
0.068                  0.9998401      -0.9356119
0.072                   0.999831      -0.9905778
0.076                  0.9998215       -1.045532
0.08                   0.9998115       -1.100475
0.084                  0.9998011       -1.155405
0.088                  0.9997903       -1.210323
0.092                  0.9997792       -1.265229
0.096                  0.9997678       -1.320121
0.1                    0.9997561       -1.374999
0.104                   0.999744       -1.429864
0.108                  0.9997317       -1.484716
0.112                   0.999719       -1.539553
0.116                  0.9997062       -1.594377
0.12                   0.9996931       -1.649186
0.124                  0.9996798       -1.703982
0.128                  0.9996665       -1.758763
0.132                   0.999653       -1.813531
0.136                  0.9996392       -1.868286
0.14                   0.9996255       -1.923027
0.144                  0.9996116       -1.977756
0.148                  0.9995978       -2.032471
0.152                   0.999584       -2.087174
0.156                  0.9995701       -2.141866
0.16                   0.9995562       -2.196547
0.164                  0.9995425       -2.251217
0.168                  0.9995287       -2.305877
0.172                  0.9995153       -2.360529
0.176                  0.9995018       -2.415171
0.18                   0.9994886       -2.469807
0.184                  0.9994756       -2.524436
0.188                  0.9994627       -2.579061
0.192                  0.9994502        -2.63368
0.196                   0.999438       -2.688297
0.2                    0.9994261       -2.742912
0.204                  0.9994145       -2.797527
0.208                  0.9994032       -2.852142
0.212                  0.9993924        -2.90676
0.216                   0.999382       -2.961382
0.22                   0.9993721        -3.01601
0.224                  0.9993624       -3.070645
0.228                  0.9993534       -3.125289
0.232                   0.999345       -3.179944
0.236                   0.999337       -3.234611
0.24                   0.9993296       -3.289294
0.244                  0.9993228       -3.343993
0.248                  0.9993165       -3.398712
0.252                  0.9993109       -3.453452
0.256                  0.9993058       -3.508215
0.26                   0.9993015       -3.563003
0.264                  0.9992978        -3.61782
0.268                  0.9992948       -3.672668
0.272                  0.9992925       -3.727547
0.276                   0.999291       -3.782462
0.28                   0.9992901       -3.837416
0.284                  0.9992899        -3.89241
0.288                  0.9992905       -3.947448
0.292                  0.9992918       -4.002531
0.296                  0.9992939       -4.057663
0.3                    0.9992966       -4.112846
0.304                  0.9993002       -4.168084
0.308                  0.9993045       -4.223377
0.312                  0.9993096       -4.278731
0.316                  0.9993153       -4.334148
0.32                   0.9993219        -4.38963
0.324                   0.999329        -4.44518
0.328                   0.999337       -4.500801
0.332                  0.9993457       -4.556497
0.336                  0.9993551       -4.612268
0.34                   0.9993651       -4.668119
0.344                  0.9993758       -4.724053
0.348                  0.9993871       -4.780072
0.352                  0.9993991       -4.836178
0.356                  0.9994117       -4.892375
0.36                   0.9994248       -4.948665
0.364                  0.9994384       -5.005051
0.368                  0.9994527       -5.061534
0.372                  0.9994675       -5.118118
0.376                  0.9994826       -5.174807
0.38                   0.9994982         -5.2316
0.384                  0.9995142       -5.288501
0.388                  0.9995307       -5.345512
0.392                  0.9995474       -5.402636
0.396                  0.9995644       -5.459874
0.4                    0.9995817       -5.517228
0.404                  0.9995992       -5.574699
0.408                  0.9996168       -5.632292
0.412                  0.9996346       -5.690005
0.416                  0.9996524       -5.747841
0.42                   0.9996704       -5.805802
0.424                  0.9996883       -5.863889
0.428                  0.9997062       -5.922102
0.432                   0.999724       -5.980444
0.436                  0.9997416       -6.038916
0.44                   0.9997591       -6.097516
0.444                  0.9997763       -6.156248
0.448                  0.9997931       -6.215112
0.452                  0.9998097       -6.274107
0.456                   0.999826       -6.333233
0.46                   0.9998417       -6.392493
0.464                   0.999857       -6.451885
0.468                  0.9998717        -6.51141
0.472                  0.9998859       -6.571066
0.476                  0.9998994       -6.630854
0.48                   0.9999123       -6.690773
0.484                  0.9999246       -6.750823
0.488                  0.9999358       -6.811004
0.492                  0.9999464       -6.871314
0.496                  0.9999562       -6.931752
0.5                     0.999965       -6.992317
0.504                   0.999973       -7.053007
0.508                  0.9999801       -7.113823
0.512                   0.999986       -7.174762
0.516                   0.999991       -7.235823
0.52                   0.9999948       -7.297003
0.524                  0.9999977       -7.358303
0.528                  0.9999994       -7.419718
0.532                          1       -7.481247
0.536                  0.9999992       -7.542891
0.54                   0.9999974       -7.604644
0.544                  0.9999945       -7.666504
0.548                  0.9999901       -7.728472
0.552                  0.9999847       -7.790543
0.556                  0.9999779       -7.852715
0.56                   0.9999699       -7.914987
0.564                  0.9999607       -7.977357
0.568                  0.9999501       -8.039819
0.572                  0.9999383       -8.102375
0.576                  0.9999254        -8.16502
0.58                   0.9999111       -8.227752
0.584                  0.9998956       -8.290568
0.588                  0.9998788       -8.353467
0.592                  0.9998608       -8.416447
0.596                  0.9998417       -8.479504
0.6                    0.9998213       -8.542637
0.604                  0.9997999       -8.605841
0.608                  0.9997772       -8.669118
0.612                  0.9997537       -8.732463
0.616                  0.9997289       -8.795876
0.62                   0.9997031       -8.859353
0.624                  0.9996764       -8.922894
0.628                  0.9996488       -8.986498
0.632                  0.9996203        -9.05016
0.636                  0.9995909       -9.113881
0.64                   0.9995608       -9.177659
0.644                  0.9995299       -9.241495
0.648                  0.9994983       -9.305384
0.652                  0.9994661       -9.369328
0.656                  0.9994334       -9.433327
0.66                   0.9994003       -9.497376
0.664                  0.9993666       -9.561481
0.668                  0.9993325       -9.625638
0.672                  0.9992981       -9.689848
0.676                  0.9992637       -9.754111
0.68                   0.9992288       -9.818428
0.684                   0.999194       -9.882799
0.688                   0.999159       -9.947226
0.692                  0.9991243       -10.01171
0.696                  0.9990896       -10.07625
0.7                     0.999055       -10.14085
0.704                  0.9990207       -10.20551
0.708                  0.9989868       -10.27024
0.712                  0.9989532       -10.33503
0.716                  0.9989202       -10.39988
0.72                   0.9988877       -10.46481
0.724                  0.9988557       -10.52982
0.728                  0.9988244        -10.5949
0.732                   0.998794       -10.66006
0.736                  0.9987645        -10.7253
0.74                   0.9987356       -10.79064
0.744                  0.9987078       -10.85606
0.748                  0.9986809       -10.92159
0.752                  0.9986551       -10.98721
0.756                  0.9986304       -11.05294
0.76                    0.998607       -11.11878
0.764                  0.9985847       -11.18473
0.768                  0.9985636       -11.25081
0.772                  0.9985438       -11.31702
0.776                  0.9985254       -11.38335
0.78                   0.9985084       -11.44983
0.784                  0.9984927       -11.51645
0.788                  0.9984785       -11.58322
0.792                  0.9984658       -11.65015
0.796                  0.9984546       -11.71724
0.8                    0.9984448        -11.7845
0.804                  0.9984365       -11.85193
0.808                  0.9984297       -11.91955
0.812                  0.9984245       -11.98736
0.816                  0.9984208       -12.05536
0.82                   0.9984186       -12.12357
0.824                  0.9984177       -12.19199
0.828                  0.9984186       -12.26062
0.832                  0.9984206       -12.32948
0.836                  0.9984244       -12.39857
0.84                   0.9984292        -12.4679
0.844                  0.9984356       -12.53747
0.848                  0.9984433       -12.60729
0.852                  0.9984522       -12.67737
0.856                  0.9984624       -12.74771
0.86                   0.9984737       -12.81833
0.864                  0.9984861       -12.88922
0.868                  0.9984996        -12.9604
0.872                   0.998514       -13.03186
0.876                  0.9985292       -13.10362
0.88                   0.9985453       -13.17569
0.884                  0.9985623       -13.24806
0.888                  0.9985799       -13.32074
0.892                  0.9985979       -13.39374
0.896                  0.9986164       -13.46706
0.9                    0.9986353       -13.54071
0.904                  0.9986545        -13.6147
0.908                  0.9986739       -13.68902
0.912                  0.9986933       -13.76368
0.916                  0.9987127       -13.83868
0.92                   0.9987319       -13.91403
0.924                   0.998751       -13.98974
0.928                  0.9987696       -14.06579
0.932                  0.9987876       -14.14221
0.936                  0.9988052       -14.21898
0.94                   0.9988218       -14.29612
0.944                  0.9988378       -14.37361
0.948                  0.9988529       -14.45148
0.952                  0.9988668        -14.5297
0.956                  0.9988794        -14.6083
0.96                   0.9988909       -14.68726
0.964                  0.9989009       -14.76659
0.968                  0.9989093       -14.84628
0.972                  0.9989161       -14.92634
0.976                  0.9989211       -15.00677
0.98                   0.9989241       -15.08756
0.984                  0.9989253       -15.16871
0.988                  0.9989244       -15.25023
0.992                  0.9989212        -15.3321
0.996                  0.9989158       -15.41434
1                      0.9989079       -15.49693
1.004                  0.9988976       -15.57987
1.008                  0.9988848       -15.66316
1.012                  0.9988694        -15.7468
1.016                  0.9988511       -15.83078
1.02                   0.9988301        -15.9151
1.024                  0.9988061       -15.99975
1.028                  0.9987795       -16.08476
1.032                  0.9987496       -16.17005
1.036                  0.9987169       -16.25567
1.04                   0.9986809       -16.34165
1.044                  0.9986418       -16.42793
1.048                  0.9985997       -16.51449
1.052                  0.9985543       -16.60139
1.056                  0.9985057       -16.68855
1.06                    0.998454       -16.77603
1.064                   0.998399       -16.86381
1.068                  0.9983408       -16.95184
1.072                  0.9982793       -17.04019
1.076                  0.9982148       -17.12879
1.08                   0.9981469       -17.21767
1.084                   0.998076       -17.30679
1.088                  0.9980019       -17.39621
1.092                  0.9979248       -17.48587
1.096                  0.9978446       -17.57579
1.1                    0.9977615       -17.66595
1.104                  0.9976754       -17.75635
1.108                  0.9975865       -17.84703
1.112                  0.9974948        -17.9379
1.116                  0.9974005       -18.02901
1.12                   0.9973037       -18.12037
1.124                  0.9972041       -18.21195
1.128                  0.9971023       -18.30375
1.132                  0.9969982       -18.39578
1.136                  0.9968917       -18.48804
1.14                   0.9967834       -18.58051
1.144                   0.996673       -18.67321
1.148                  0.9965609       -18.76612
1.152                  0.9964469       -18.85926
1.156                  0.9963315       -18.95262
1.16                   0.9962146        -19.0462
1.164                  0.9960964          -19.14
1.168                   0.995977       -19.23402
1.172                  0.9958566       -19.32827
1.176                  0.9957353       -19.42276
1.18                   0.9956134       -19.51748
1.184                  0.9954909       -19.61243
1.188                  0.9953679       -19.70762
1.192                  0.9952446       -19.80307
1.196                  0.9951212       -19.89876
1.2                    0.9949978       -19.99472
1.204                  0.9948747       -20.09093
1.208                  0.9947517       -20.18742
1.212                  0.9946292       -20.28419
1.216                  0.9945072       -20.38125
1.22                   0.9943861       -20.47861
1.224                  0.9942658       -20.57627
1.228                  0.9941464       -20.67425
1.232                  0.9940282       -20.77255
1.236                   0.993911        -20.8712
1.24                   0.9937955       -20.97019
1.244                  0.9936811       -21.06955
1.248                  0.9935684       -21.16927
1.252                  0.9934574       -21.26939
1.256                  0.9933481       -21.36991
1.26                   0.9932405       -21.47084
1.264                  0.9931348        -21.5722
1.268                  0.9930311         -21.674
1.272                  0.9929293       -21.77626
1.276                  0.9928296         -21.879
1.28                    0.992732       -21.98223
1.284                  0.9926365       -22.08596
1.288                  0.9925431       -22.19021
1.292                  0.9924518         -22.295
1.296                  0.9923626       -22.40035
1.3                    0.9922756       -22.50627
1.304                  0.9921906       -22.61279
1.308                  0.9921077       -22.71991
1.312                  0.9920267       -22.82765
1.316                  0.9919477       -22.93604
1.32                   0.9918706       -23.04509
1.324                  0.9917953       -23.15482
1.328                  0.9917216       -23.26524
1.332                  0.9916496       -23.37638
1.336                  0.9915791       -23.48825
1.34                   0.9915098       -23.60087
1.344                  0.9914419       -23.71425
1.348                   0.991375       -23.82842
1.352                  0.9913088       -23.94339
1.356                  0.9912436       -24.05918
1.36                   0.9911788        -24.1758
1.364                  0.9911144       -24.29328
1.368                  0.9910501       -24.41162
1.372                  0.9909859       -24.53084
1.376                  0.9909214       -24.65096
1.38                   0.9908563       -24.77199
1.384                  0.9907905       -24.89395
1.388                  0.9907236       -25.01685
1.392                  0.9906556       -25.14071
1.396                  0.9905861       -25.26553
1.4                    0.9905148       -25.39133
1.404                  0.9904415       -25.51813
1.408                  0.9903657       -25.64593
1.412                  0.9902875       -25.77475
1.416                  0.9902063       -25.90459
1.42                   0.9901219       -26.03547
1.424                   0.990034       -26.16739
1.428                  0.9899425       -26.30036
1.432                  0.9898467        -26.4344
1.436                  0.9897465        -26.5695
1.44                   0.9896417       -26.70568
1.444                  0.9895317       -26.84294
1.448                  0.9894165       -26.98129
1.452                  0.9892957       -27.12073
1.456                  0.9891689       -27.26126
1.46                   0.9890358        -27.4029
1.464                  0.9888962       -27.54564
1.468                  0.9887498       -27.68948
1.472                  0.9885965       -27.83442
1.476                  0.9884355       -27.98049
1.48                   0.9882668       -28.12765
1.484                  0.9880902       -28.27593
1.488                  0.9879054       -28.42531
1.492                  0.9877122        -28.5758
1.496                    0.98751        -28.7274
1.5                     0.987299        -28.8801
1.504                  0.9870786       -29.03391
1.508                  0.9868488       -29.18882
1.512                  0.9866093       -29.34482
1.516                    0.98636       -29.50191
1.52                   0.9861006        -29.6601
1.524                  0.9858308       -29.81937
1.528                  0.9855508       -29.97973
1.532                    0.98526       -30.14117
1.536                  0.9849585       -30.30367
1.54                   0.9846461       -30.46725
1.544                  0.9843227       -30.63189
1.548                  0.9839882        -30.7976
1.552                  0.9836425       -30.96436
1.556                  0.9832854       -31.13217
1.56                    0.982917       -31.30103
1.564                  0.9825372       -31.47094
1.568                  0.9821459       -31.64188
1.572                  0.9817432       -31.81387
1.576                   0.981329       -31.98688
1.58                   0.9809032       -32.16093
1.584                  0.9804658       -32.33601
1.588                  0.9800171        -32.5121
1.592                   0.979557       -32.68924
1.596                  0.9790855       -32.86738
1.6                    0.9786027       -33.04656
1.604                  0.9781087       -33.22676
1.608                  0.9776036       -33.40799
1.612                  0.9770874       -33.59025
1.616                  0.9765603       -33.77354
1.62                   0.9760225       -33.95787
1.624                  0.9754738       -34.14324
1.628                  0.9749147       -34.32965
1.632                  0.9743453       -34.51712
1.636                  0.9737656       -34.70565
1.64                   0.9731758       -34.89525
1.644                  0.9725762       -35.08595
1.648                  0.9719669       -35.27773
1.652                  0.9713481       -35.47061
1.656                    0.97072       -35.66462
1.66                   0.9700825       -35.85977
1.664                  0.9694363       -36.05607
1.668                  0.9687812       -36.25355
1.672                  0.9681176       -36.45221
1.676                  0.9674455       -36.65209
1.68                   0.9667651       -36.85321
1.684                  0.9660769       -37.05559
1.688                  0.9653806       -37.25926
1.692                  0.9646766       -37.46425
1.696                  0.9639652       -37.67057
1.7                    0.9632464       -37.87827
1.704                  0.9625203        -38.0874
1.708                   0.961787       -38.29794
1.712                  0.9610468       -38.50998
1.716                  0.9602997       -38.72352
1.72                   0.9595458       -38.93863
1.724                  0.9587852       -39.15532
1.728                  0.9580177       -39.37366
1.732                  0.9572438       -39.59367
1.736                  0.9564632        -39.8154
1.74                   0.9556761       -40.03892
1.744                  0.9548823       -40.26425
1.748                  0.9540817       -40.49144
1.752                  0.9532744       -40.72057
1.756                  0.9524602       -40.95166
1.76                   0.9516392       -41.18479
1.764                  0.9508109          -41.42
1.768                  0.9499754       -41.65735
1.772                  0.9491324       -41.89688
1.776                  0.9482815       -42.13869
1.78                   0.9474226        -42.3828
1.784                  0.9465555        -42.6293
1.788                  0.9456797       -42.87824
1.792                  0.9447948       -43.12969
1.796                  0.9439005        -43.3837
1.8                    0.9429965       -43.64034
1.804                   0.942082       -43.89968
1.808                  0.9411567       -44.16179
1.812                  0.9402202       -44.42673
1.816                  0.9392716       -44.69458
1.82                   0.9383104       -44.96539
1.824                  0.9373362       -45.23925
1.828                   0.936348        -45.5162
1.832                  0.9353451       -45.79634
1.836                  0.9343269       -46.07973
1.84                   0.9332925       -46.36642
1.844                  0.9322412       -46.65651
1.848                  0.9311719       -46.95005
1.852                   0.930084       -47.24712
1.856                  0.9289763       -47.54778
1.86                    0.927848       -47.85211
1.864                   0.926698       -48.16018
1.868                  0.9255253       -48.47204
1.872                  0.9243289       -48.78778
1.876                  0.9231076       -49.10746
1.88                   0.9218603       -49.43115
1.884                  0.9205858       -49.75892
1.888                  0.9192828       -50.09083
1.892                  0.9179504       -50.42695
1.896                  0.9165871       -50.76734
1.9                    0.9151918       -51.11207
1.904                   0.913763       -51.46122
1.908                  0.9122996       -51.81481
1.912                  0.9108002       -52.17294
1.916                  0.9092632       -52.53566
1.92                   0.9076877       -52.90302
1.924                  0.9060718        -53.2751
1.928                  0.9044144       -53.65195
1.932                  0.9027141       -54.03362
1.936                  0.9009692       -54.42018
1.94                   0.8991785       -54.81167
1.944                  0.8973406       -55.20816
1.948                  0.8954538        -55.6097
1.952                  0.8935166       -56.01634
1.956                  0.8915279       -56.42813
1.96                   0.8894859       -56.84513
1.964                  0.8873892       -57.26739
1.968                  0.8852364       -57.69495
1.972                   0.883026       -58.12787
1.976                  0.8807565       -58.56619
1.98                   0.8784265       -59.00997
1.984                  0.8760345       -59.45924
1.988                  0.8735791       -59.91404
1.992                  0.8710589       -60.37445
1.996                  0.8684724       -60.84049
2                      0.8658184       -61.31221
2.004                  0.8630953       -61.78967
2.008                   0.860302       -62.27288
2.012                   0.857437       -62.76191
2.016                  0.8544991        -63.2568
2.02                   0.8514869       -63.75758
2.024                  0.8483994        -64.2643
2.028                   0.845235       -64.77703
2.032                  0.8419927       -65.29577
2.036                  0.8386715        -65.8206
2.04                   0.8352701       -66.35155
2.044                  0.8317876       -66.88867
2.048                  0.8282228         -67.432
2.052                  0.8245746       -67.98159
2.056                  0.8208423       -68.53749
2.06                   0.8170249       -69.09975
2.064                  0.8131214        -69.6684
2.068                  0.8091311       -70.24353
2.072                  0.8050533       -70.82517
2.076                  0.8008871       -71.41338
2.08                   0.7966319       -72.00822
2.084                  0.7922871       -72.60973
2.088                   0.787852         -73.218
2.092                  0.7833264       -73.83307
2.096                  0.7787095       -74.45503
2.1                    0.7740011       -75.08394
2.104                  0.7692008       -75.71985
2.108                  0.7643084       -76.36288
2.112                  0.7593237       -77.01307
2.116                  0.7542463       -77.67054
2.12                   0.7490764       -78.33534
2.124                  0.7438139       -79.00758
2.128                  0.7384588       -79.68736
2.132                  0.7330113       -80.37478
2.136                  0.7274715       -81.06996
2.14                   0.7218397         -81.773
2.144                  0.7161164       -82.48402
2.148                  0.7103016       -83.20316
2.152                  0.7043962       -83.93055
2.156                  0.6984005       -84.66632
2.16                   0.6923153       -85.41064
2.164                  0.6861414       -86.16365
2.168                  0.6798792       -86.92553
2.172                  0.6735299       -87.69646
2.176                  0.6670945       -88.47661
2.18                    0.660574       -89.26621
2.184                  0.6539693       -90.06545
2.188                  0.6472818       -90.87458
2.192                   0.640513        -91.6938
2.196                   0.633664       -92.52339
2.2                    0.6267363       -93.36361
2.204                  0.6197318       -94.21474
2.208                   0.612652       -95.07709
2.212                  0.6054986       -95.95097
2.216                  0.5982737       -96.83674
2.22                   0.5909792       -97.73473
2.224                  0.5836172       -98.64534
2.228                  0.5761899         -99.569
2.232                  0.5686996       -100.5061
2.236                   0.561149       -101.4571
2.24                   0.5535405       -102.4226
2.244                  0.5458767        -103.403
2.248                  0.5381606       -104.3988
2.252                  0.5303951       -105.4107
2.256                  0.5225834       -106.4394
2.26                   0.5147288       -107.4853
2.264                  0.5068345       -108.5494
2.268                  0.4989044       -109.6323
2.272                  0.4909421       -110.7348
2.276                  0.4829515       -111.8578
2.28                   0.4749367       -113.0022
2.284                  0.4669022       -114.1689
2.288                  0.4588525        -115.359
2.292                  0.4507923       -116.5736
2.296                  0.4427267       -117.8138
2.3                    0.4346609        -119.081
2.304                  0.4266003       -120.3762
2.308                   0.418551       -121.7011
2.312                   0.410519       -123.0571
2.316                  0.4025107       -124.4456
2.32                    0.394533       -125.8685
2.324                  0.3865929       -127.3274
2.328                  0.3786982       -128.8242
2.332                  0.3708568       -130.3608
2.336                   0.363077       -131.9392
2.34                   0.3553679       -133.5617
2.344                  0.3477388       -135.2304
2.348                  0.3401997       -136.9477
2.352                  0.3327612       -138.7158