! TOUCHSTONE file generated by CST MICROWAVE STUDIO
! Date and time: Thu May 12 18:27:58 2022
! Project name: AppElm_antenne_dipole_FR4.cst
! Parameters = {L=38.8; e=0.035; f=2.45e+09; h=1.6; i=0.8; l1=4; lambda=122.449; ls=31.5; wl=1.7; ws=80}
! Header version: 2018
! Port assignment regex: !\s*Touchstone port\s*([0-9]+)\s*=\s*(CST MWS port|CST DS port)\s*([0-9]+|Zmin|Zmax)\s*\(\"(.*)\"\)(\s*mode\s*([0-9]+))?.*
! Touchstone port assignment:
! Touchstone port 1 = CST MWS port 1 ("")
# GHz S MA R 50
0                      0.9999173              -0
0.004                   0.999917     -0.05506223
0.008                  0.9999162      -0.1101238
0.012                  0.9999148      -0.1651841
0.016                   0.999913      -0.2202425
0.02                   0.9999105      -0.2752983
0.024                  0.9999075      -0.3303509
0.028                   0.999904      -0.3853999
0.032                  0.9999001      -0.4404443
0.036                  0.9998956      -0.4954837
0.04                   0.9998904      -0.5505176
0.044                   0.999885      -0.6055452
0.048                  0.9998791      -0.6605661
0.052                  0.9998725      -0.7155798
0.056                  0.9998655      -0.7705856
0.06                    0.999858      -0.8255831
0.064                  0.9998502      -0.8805718
0.068                  0.9998418      -0.9355512
0.072                  0.9998331      -0.9905211
0.076                  0.9998239       -1.045481
0.08                   0.9998144        -1.10043
0.084                  0.9998044       -1.155368
0.088                  0.9997942       -1.210295
0.092                  0.9997835       -1.265211
0.096                  0.9997725       -1.320115
0.1                    0.9997611       -1.375006
0.104                  0.9997495       -1.429886
0.108                  0.9997378       -1.484754
0.112                  0.9997256       -1.539609
0.116                  0.9997132       -1.594452
0.12                   0.9997007       -1.649282
0.124                  0.9996879       -1.704099
0.128                   0.999675       -1.758905
0.132                  0.9996621       -1.813698
0.136                  0.9996488       -1.868479
0.14                   0.9996355       -1.923248
0.144                  0.9996221       -1.978006
0.148                  0.9996087       -2.032753
0.152                  0.9995953       -2.087489
0.156                  0.9995819       -2.142214
0.16                   0.9995685        -2.19693
0.164                  0.9995552       -2.251637
0.168                  0.9995418       -2.306335
0.172                  0.9995287       -2.361025
0.176                  0.9995157       -2.415708
0.18                   0.9995028       -2.470385
0.184                  0.9994901       -2.525057
0.188                  0.9994777       -2.579724
0.192                  0.9994654       -2.634389
0.196                  0.9994534       -2.689051
0.2                    0.9994417       -2.743712
0.204                  0.9994303       -2.798373
0.208                  0.9994194       -2.853036
0.212                  0.9994087       -2.907703
0.216                  0.9993984       -2.962374
0.22                   0.9993886        -3.01705
0.224                  0.9993792       -3.071735
0.228                  0.9993702       -3.126429
0.232                  0.9993617       -3.181135
0.236                  0.9993538       -3.235853
0.24                   0.9993464       -3.290586
0.244                  0.9993395       -3.345336
0.248                  0.9993333       -3.400106
0.252                  0.9993276       -3.454896
0.256                  0.9993224        -3.50971
0.26                    0.999318       -3.564548
0.264                  0.9993142       -3.619414
0.268                   0.999311       -3.674311
0.272                  0.9993085        -3.72924
0.276                  0.9993067       -3.784204
0.28                   0.9993056       -3.839204
0.284                  0.9993051       -3.894246
0.288                  0.9993054       -3.949329
0.292                  0.9993064       -4.004457
0.296                  0.9993081       -4.059633
0.3                    0.9993106        -4.11486
0.304                  0.9993137       -4.170139
0.308                  0.9993177       -4.225475
0.312                  0.9993223       -4.280869
0.316                  0.9993276       -4.336325
0.32                   0.9993337       -4.391844
0.324                  0.9993404       -4.447431
0.328                   0.999348       -4.503087
0.332                  0.9993561       -4.558816
0.336                  0.9993651        -4.61462
0.34                   0.9993746       -4.670502
0.344                  0.9993848       -4.726466
0.348                  0.9993956       -4.782512
0.352                  0.9994071       -4.838646
0.356                  0.9994192       -4.894868
0.36                   0.9994317       -4.951181
0.364                   0.999445       -5.007588
0.368                  0.9994586       -5.064094
0.372                  0.9994729       -5.120698
0.376                  0.9994875       -5.177404
0.38                   0.9995027       -5.234213
0.384                  0.9995182        -5.29113
0.388                  0.9995341       -5.348155
0.392                  0.9995504        -5.40529
0.396                   0.999567       -5.462539
0.4                    0.9995838       -5.519903
0.404                  0.9996008       -5.577383
0.408                  0.9996181       -5.634981
0.412                  0.9996355       -5.692701
0.416                   0.999653       -5.750542
0.42                   0.9996706       -5.808507
0.424                  0.9996881       -5.866597
0.428                  0.9997058       -5.924812
0.432                  0.9997231       -5.983155
0.436                  0.9997406       -6.041626
0.44                   0.9997577       -6.100226
0.444                  0.9997746       -6.158957
0.448                  0.9997914       -6.217818
0.452                  0.9998077       -6.276812
0.456                  0.9998238       -6.335936
0.46                   0.9998395       -6.395191
0.464                  0.9998546        -6.45458
0.468                  0.9998692         -6.5141
0.472                  0.9998834       -6.573753
0.476                  0.9998969       -6.633537
0.48                   0.9999097       -6.693453
0.484                  0.9999219       -6.753499
0.488                  0.9999334       -6.813676
0.492                  0.9999441       -6.873983
0.496                   0.999954       -6.934417
0.5                    0.9999631        -6.99498
0.504                  0.9999711       -7.055669
0.508                  0.9999783       -7.116484
0.512                  0.9999846       -7.177422
0.516                  0.9999897       -7.238483
0.52                   0.9999939       -7.299664
0.524                   0.999997       -7.360965
0.528                  0.9999989       -7.422384
0.532                          1       -7.483918
0.536                  0.9999998       -7.545565
0.54                   0.9999981       -7.607325
0.544                  0.9999957       -7.669194
0.548                  0.9999917       -7.731171
0.552                  0.9999867       -7.793253
0.556                  0.9999804       -7.855437
0.56                   0.9999729       -7.917723
0.564                  0.9999642       -7.980107
0.568                  0.9999542       -8.042586
0.572                  0.9999429       -8.105158
0.576                  0.9999303       -8.167824
0.58                   0.9999167       -8.230578
0.584                  0.9999016       -8.293419
0.588                  0.9998855       -8.356343
0.592                   0.999868       -8.419348
0.596                  0.9998495       -8.482434
0.6                    0.9998297       -8.545597
0.604                  0.9998087       -8.608835
0.608                  0.9997867       -8.672145
0.612                  0.9997635       -8.735527
0.616                  0.9997395       -8.798977
0.62                   0.9997143       -8.862493
0.624                  0.9996881       -8.926077
0.628                  0.9996609       -8.989722
0.632                  0.9996329       -9.053429
0.636                   0.999604       -9.117197
0.64                   0.9995745       -9.181023
0.644                   0.999544        -9.24491
0.648                   0.999513        -9.30885
0.652                  0.9994811       -9.372848
0.656                  0.9994489       -9.436898
0.66                   0.9994161       -9.501006
0.664                  0.9993828       -9.565167
0.668                  0.9993491       -9.629382
0.672                  0.9993151       -9.693653
0.676                  0.9992808       -9.757976
0.68                   0.9992464       -9.822355
0.684                  0.9992117       -9.886789
0.688                  0.9991772       -9.951277
0.692                  0.9991425       -10.01583
0.696                  0.9991079       -10.08043
0.7                    0.9990736        -10.1451
0.704                  0.9990394       -10.20983
0.708                  0.9990056       -10.27462
0.712                  0.9989721       -10.33948
0.716                  0.9989391       -10.40441
0.72                   0.9989066       -10.46941
0.724                  0.9988746       -10.53448
0.728                  0.9988434       -10.59963
0.732                  0.9988128       -10.66486
0.736                   0.998783       -10.73017
0.74                   0.9987541       -10.79557
0.744                  0.9987261       -10.86107
0.748                  0.9986991       -10.92666
0.752                   0.998673       -10.99235
0.756                  0.9986481       -11.05815
0.76                   0.9986243       -11.12405
0.764                  0.9986016       -11.19008
0.768                  0.9985803       -11.25622
0.772                  0.9985602       -11.32249
0.776                  0.9985414       -11.38889
0.78                    0.998524       -11.45543
0.784                  0.9985079       -11.52211
0.788                  0.9984932       -11.58894
0.792                    0.99848       -11.65593
0.796                  0.9984682       -11.72307
0.8                     0.998458       -11.79039
0.804                  0.9984492       -11.85788
0.808                  0.9984419       -11.92556
0.812                  0.9984362       -11.99342
0.816                  0.9984318       -12.06147
0.82                   0.9984289       -12.12973
0.824                  0.9984277        -12.1982
0.828                  0.9984279       -12.26688
0.832                  0.9984296       -12.33578
0.836                  0.9984326       -12.40492
0.84                   0.9984369       -12.47429
0.844                  0.9984428        -12.5439
0.848                  0.9984498       -12.61376
0.852                  0.9984581       -12.68388
0.856                  0.9984677       -12.75426
0.86                   0.9984786       -12.82491
0.864                  0.9984904       -12.89584
0.868                  0.9985033       -12.96704
0.872                  0.9985172       -13.03854
0.876                   0.998532       -13.11033
0.88                   0.9985477       -13.18242
0.884                  0.9985641       -13.25482
0.888                  0.9985812       -13.32753
0.892                  0.9985987       -13.40056
0.896                  0.9986169        -13.4739
0.9                    0.9986355       -13.54758
0.904                  0.9986543       -13.62158
0.908                  0.9986733       -13.69592
0.912                  0.9986924        -13.7706
0.916                  0.9987116       -13.84563
0.92                   0.9987306         -13.921
0.924                  0.9987493       -13.99672
0.928                  0.9987677        -14.0728
0.932                  0.9987856       -14.14923
0.936                   0.998803       -14.22602
0.94                   0.9988197       -14.30317
0.944                  0.9988356       -14.38069
0.948                  0.9988505       -14.45857
0.952                  0.9988644       -14.53682
0.956                  0.9988772       -14.61543
0.96                   0.9988887       -14.69441
0.964                  0.9988988       -14.77376
0.968                  0.9989074       -14.85347
0.972                  0.9989143       -14.93355
0.976                  0.9989196         -15.014
0.98                   0.9989229       -15.09481
0.984                  0.9989243       -15.17599
0.988                  0.9989236       -15.25754
0.992                  0.9989209       -15.33944
0.996                  0.9989159        -15.4217
1                      0.9989085       -15.50432
1.004                  0.9988987       -15.58729
1.008                  0.9988862       -15.67062
1.012                  0.9988713       -15.75429
1.016                  0.9988537       -15.83831
1.02                   0.9988332       -15.92267
1.024                  0.9988098       -16.00737
1.028                  0.9987837       -16.09241
1.032                  0.9987545       -16.17776
1.036                  0.9987223       -16.26344
1.04                   0.9986871       -16.34947
1.044                  0.9986487       -16.43577
1.048                  0.9986073       -16.52241
1.052                  0.9985626       -16.60934
1.056                  0.9985148       -16.69661
1.06                   0.9984637       -16.78411
1.064                  0.9984096       -16.87198
1.068                   0.998352       -16.96009
1.072                  0.9982913        -17.0485
1.076                  0.9982275       -17.13718
1.08                   0.9981605       -17.22614
1.084                  0.9980902       -17.31537
1.088                  0.9980169       -17.40484
1.092                  0.9979404       -17.49459
1.096                   0.997861       -17.58459
1.1                    0.9977786       -17.67488
1.104                  0.9976933       -17.76539
1.108                  0.9976051        -17.8561
1.112                   0.997514       -17.94711
1.116                  0.9974204       -18.03833
1.12                   0.9973241        -18.1298
1.124                  0.9972252       -18.22149
1.128                   0.997124       -18.31342
1.132                  0.9970203       -18.40557
1.136                  0.9969145       -18.49794
1.14                   0.9968066       -18.59054
1.144                  0.9966967       -18.68337
1.148                  0.9965849       -18.77641
1.152                  0.9964714       -18.86968
1.156                  0.9963563       -18.96317
1.16                   0.9962396       -19.05688
1.164                  0.9961218       -19.15082
1.168                  0.9960026       -19.24499
1.172                  0.9958824       -19.33939
1.176                  0.9957613       -19.43401
1.18                   0.9956394       -19.52888
1.184                  0.9955169       -19.62398
1.188                  0.9953939       -19.71932
1.192                  0.9952705       -19.81492
1.196                   0.995147       -19.91077
1.2                    0.9950235       -20.00687
1.204                     0.9949       -20.10325
1.208                  0.9947768       -20.19989
1.212                   0.994654       -20.29682
1.216                  0.9945317       -20.39404
1.22                   0.9944102       -20.49155
1.224                  0.9942893       -20.58937
1.228                  0.9941694       -20.68751
1.232                  0.9940507       -20.78597
1.236                  0.9939331       -20.88478
1.24                   0.9938166       -20.98393
1.244                  0.9937017       -21.08345
1.248                  0.9935882       -21.18333
1.252                  0.9934762       -21.28361
1.256                  0.9933661       -21.38429
1.26                   0.9932576       -21.48538
1.264                   0.993151       -21.58689
1.268                  0.9930463       -21.68885
1.272                  0.9929436       -21.79127
1.276                  0.9928427       -21.89416
1.28                   0.9927439       -21.99754
1.284                  0.9926474       -22.10143
1.288                  0.9925528       -22.20583
1.292                  0.9924602       -22.31078
1.296                  0.9923699       -22.41628
1.3                    0.9922815       -22.52235
1.304                  0.9921952       -22.62901
1.308                  0.9921111       -22.73627
1.312                  0.9920288       -22.84416
1.316                  0.9919485        -22.9527
1.32                   0.9918699       -23.06189
1.324                  0.9917932       -23.17176
1.328                  0.9917183       -23.28232
1.332                  0.9916447       -23.39359
1.336                  0.9915728        -23.5056
1.34                   0.9915021       -23.61836
1.344                  0.9914327       -23.73188
1.348                  0.9913643       -23.84618
1.352                  0.9912968       -23.96128
1.356                  0.9912301        -24.0772
1.36                   0.9911638       -24.19395
1.364                  0.9910981       -24.31155
1.368                  0.9910324       -24.43002
1.372                  0.9909667       -24.54937
1.376                  0.9909008       -24.66961
1.38                   0.9908343       -24.79077
1.384                  0.9907672       -24.91285
1.388                   0.990699       -25.03588
1.392                  0.9906296       -25.15986
1.396                  0.9905588        -25.2848
1.4                    0.9904862       -25.41073
1.404                  0.9904117       -25.53765
1.408                  0.9903347       -25.66557
1.412                  0.9902553       -25.79451
1.416                  0.9901729       -25.92448
1.42                   0.9900876       -26.05548
1.424                  0.9899984       -26.18752
1.428                  0.9899056       -26.32063
1.432                  0.9898088       -26.45479
1.436                  0.9897077       -26.59002
1.44                   0.9896018       -26.72633
1.444                   0.989491       -26.86372
1.448                  0.9893747        -27.0022
1.452                  0.9892531       -27.14178
1.456                  0.9891254       -27.28245
1.46                   0.9889915       -27.42422
1.464                  0.9888511        -27.5671
1.468                  0.9887039       -27.71109
1.472                  0.9885497       -27.85619
1.476                   0.988388        -28.0024
1.48                   0.9882186       -28.14972
1.484                  0.9880414       -28.29815
1.488                  0.9878558       -28.44769
1.492                  0.9876618       -28.59835
1.496                  0.9874592       -28.75012
1.5                    0.9872474       -28.90299
1.504                  0.9870265       -29.05697
1.508                  0.9867961       -29.21206
1.512                   0.986556       -29.36825
1.516                  0.9863061       -29.52554
1.52                    0.986046       -29.68392
1.524                  0.9857757        -29.8434
1.528                  0.9854949       -30.00396
1.532                  0.9852036        -30.1656
1.536                  0.9849014       -30.32833
1.54                   0.9845884       -30.49213
1.544                  0.9842644         -30.657
1.548                  0.9839292       -30.82294
1.552                  0.9835827       -30.98994
1.556                  0.9832249       -31.15799
1.56                   0.9828557        -31.3271
1.564                  0.9824752       -31.49726
1.568                  0.9820831       -31.66847
1.572                  0.9816794       -31.84072
1.576                  0.9812642       -32.01401
1.58                   0.9808374       -32.18834
1.584                   0.980399        -32.3637
1.588                  0.9799493       -32.54008
1.592                  0.9794879       -32.71751
1.596                  0.9790152       -32.89596
1.6                    0.9785311       -33.07545
1.604                  0.9780356       -33.25596
1.608                  0.9775289       -33.43751
1.612                  0.9770112       -33.62009
1.616                  0.9764824       -33.80372
1.62                   0.9759427       -33.98838
1.624                  0.9753923       -34.17409
1.628                  0.9748313       -34.36085
1.632                  0.9742597       -34.54867
1.636                  0.9736779       -34.73756
1.64                   0.9730859       -34.92752
1.644                   0.972484       -35.11857
1.648                  0.9718721       -35.31072
1.652                  0.9712506       -35.50399
1.656                  0.9706196       -35.69838
1.66                   0.9699793       -35.89391
1.664                  0.9693301       -36.09059
1.668                  0.9686719       -36.28845
1.672                   0.968005       -36.48751
1.676                  0.9673293       -36.68779
1.68                   0.9666455        -36.8893
1.684                  0.9659534       -37.09208
1.688                  0.9652534       -37.29615
1.692                  0.9645456       -37.50153
1.696                  0.9638299       -37.70827
1.7                    0.9631067       -37.91638
1.704                  0.9623763        -38.1259
1.708                  0.9616384       -38.33686
1.712                  0.9608937        -38.5493
1.716                  0.9601416       -38.76326
1.72                   0.9593828       -38.97876
1.724                  0.9586169       -39.19586
1.728                  0.9578444        -39.4146
1.732                   0.957065       -39.63502
1.736                  0.9562788       -39.85716
1.74                    0.955486       -40.08107
1.744                  0.9546864        -40.3068
1.748                  0.9538799       -40.53439
1.752                  0.9530665       -40.76392
1.756                  0.9522462        -40.9954
1.76                   0.9514188       -41.22892
1.764                   0.950584       -41.46451
1.768                  0.9497419       -41.70224
1.772                  0.9488923       -41.94216
1.776                  0.9480346       -42.18435
1.78                   0.9471689       -42.42883
1.784                  0.9462947        -42.6757
1.788                  0.9454119         -42.925
1.792                  0.9445198        -43.1768
1.796                  0.9436184       -43.43116
1.8                     0.942707       -43.68815
1.804                  0.9417851       -43.94784
1.808                  0.9408525       -44.21029
1.812                  0.9399083       -44.47556
1.816                  0.9389522       -44.74373
1.82                   0.9379834       -45.01487
1.824                  0.9370014       -45.28904
1.828                  0.9360055       -45.56631
1.832                  0.9349949       -45.84675
1.836                  0.9339691       -46.13042
1.84                   0.9329268       -46.41742
1.844                  0.9318679       -46.70779
1.848                  0.9307908       -47.00163
1.852                  0.9296951       -47.29896
1.856                  0.9285798        -47.5999
1.86                   0.9274437       -47.90449
1.864                   0.926286       -48.21282
1.868                  0.9251056       -48.52495
1.872                  0.9239016       -48.84094
1.876                  0.9226726       -49.16088
1.88                   0.9214178       -49.48481
1.884                  0.9201358       -49.81282
1.888                  0.9188256       -50.14496
1.892                  0.9174859       -50.48132
1.896                  0.9161154       -50.82194
1.9                    0.9147129        -51.1669
1.904                  0.9132771       -51.51626
1.908                  0.9118069       -51.87008
1.912                  0.9103006       -52.22843
1.916                   0.908757       -52.59137
1.92                   0.9071748       -52.95896
1.924                  0.9055524       -53.33125
1.928                  0.9038889       -53.70831
1.932                  0.9021824        -54.0902
1.936                  0.9004315       -54.47698
1.94                    0.898635        -54.8687
1.944                  0.8967912       -55.26542
1.948                   0.894899       -55.66717
1.952                  0.8929565       -56.07404
1.956                  0.8909625       -56.48607
1.96                   0.8889156        -56.9033
1.964                  0.8868141        -57.3258
1.968                  0.8846566        -57.7536
1.972                  0.8824418       -58.18677
1.976                   0.880168       -58.62535
1.98                   0.8778339        -59.0694
1.984                  0.8754381       -59.51893
1.988                  0.8729791       -59.97404
1.992                  0.8704554       -60.43474
1.996                  0.8678658       -60.90108
2                      0.8652087       -61.37311
2.004                   0.862483       -61.85088
2.008                  0.8596869       -62.33444
2.012                  0.8568196       -62.82381
2.016                  0.8538796       -63.31906
2.02                   0.8508655       -63.82022
2.024                  0.8477762       -64.32733
2.028                  0.8446104       -64.84047
2.032                  0.8413669       -65.35965
2.036                  0.8380448       -65.88492
2.04                   0.8346426       -66.41633
2.044                  0.8311595       -66.95392
2.048                  0.8275944       -67.49774
2.052                  0.8239462       -68.04786
2.056                  0.8202139       -68.60431
2.06                    0.816397       -69.16712
2.064                  0.8124942       -69.73639
2.068                  0.8085047       -70.31214
2.072                   0.804428       -70.89442
2.076                   0.800263       -71.48329
2.08                   0.7960094       -72.07883
2.084                  0.7916664       -72.68109
2.088                  0.7872333       -73.29012
2.092                  0.7827099       -73.90599
2.096                  0.7780956       -74.52877
2.1                    0.7733899       -75.15854
2.104                  0.7685926       -75.79536
2.108                  0.7637033       -76.43931
2.112                  0.7587219       -77.09047
2.116                  0.7536483       -77.74894
2.12                   0.7484823       -78.41479
2.124                  0.7432238       -79.08813
2.128                  0.7378731       -79.76906
2.132                  0.7324302       -80.45767
2.136                  0.7268951       -81.15408
2.14                   0.7212684       -81.85841
2.144                  0.7155504       -82.57077
2.148                  0.7097411        -83.2913
2.152                  0.7038415       -84.02012
2.156                  0.6978518       -84.75738
2.16                   0.6917729       -85.50327
2.164                  0.6856053       -86.25789
2.168                  0.6793499       -87.02145
2.172                  0.6730077       -87.79413
2.176                  0.6665795        -88.5761
2.18                   0.6600664       -89.36758
2.184                  0.6534695       -90.16878
2.188                  0.6467902       -90.97993
2.192                  0.6400296       -91.80128
2.196                  0.6331892       -92.63306
2.2                    0.6262705       -93.47555
2.204                  0.6192752       -94.32905
2.208                  0.6122049       -95.19386
2.212                  0.6050614        -96.0703
2.216                  0.5978466        -96.9587
2.22                   0.5905625       -97.85946
2.224                  0.5832113       -98.77293
2.228                  0.5757953       -99.69954
2.232                  0.5683166       -100.6397
2.236                   0.560778        -101.594
2.24                   0.5531818       -102.5627
2.244                  0.5455309       -103.5466
2.248                  0.5378281        -104.546
2.252                  0.5300765       -105.5616
2.256                   0.522279       -106.5941
2.26                   0.5144392       -107.6441
2.264                  0.5065603       -108.7123
2.268                  0.4986461       -109.7995
2.272                  0.4907002       -110.9065
2.276                  0.4827269       -112.0342
2.28                   0.4747301       -113.1834
2.284                  0.4667142       -114.3551
2.288                  0.4586839       -115.5504
2.292                  0.4506438       -116.7704
2.296                  0.4425992       -118.0162
2.3                    0.4345554       -119.2891
2.304                  0.4265179       -120.5904
2.308                  0.4184924       -121.9215
2.312                  0.4104855       -123.2838
2.316                  0.4025034        -124.679
2.32                   0.3945531       -126.1087
2.324                  0.3866417       -127.5746
2.328                  0.3787771       -129.0787
2.332                   0.370967       -130.6227
2.336                  0.3632203       -132.2088
2.34                   0.3555458       -133.8391
2.344                  0.3479529       -135.5158
2.348                  0.3404519       -137.2412
2.352                  0.3330533       -139.0176