! TOUCHSTONE file generated by CST MICROWAVE STUDIO
! Date and time: Thu May 12 18:28:01 2022
! Project name: AppElm_antenne_dipole_FR4.cst
! Parameters = {L=38.8; e=0.035; f=2.45e+09; h=1.6; i=0.8; l1=4; lambda=122.449; ls=36; wl=1.7; ws=80}
! Header version: 2018
! Port assignment regex: !\s*Touchstone port\s*([0-9]+)\s*=\s*(CST MWS port|CST DS port)\s*([0-9]+|Zmin|Zmax)\s*\(\"(.*)\"\)(\s*mode\s*([0-9]+))?.*
! Touchstone port assignment:
! Touchstone port 1 = CST MWS port 1 ("")
# GHz S MA R 50
0                      0.9999093              -0
0.004                  0.9999091     -0.05499527
0.008                  0.9999083      -0.1099901
0.012                  0.9999072      -0.1649841
0.016                  0.9999055      -0.2199767
0.02                   0.9999033      -0.2749675
0.024                  0.9999008      -0.3299562
0.028                  0.9998978      -0.3849422
0.032                  0.9998942      -0.4399253
0.036                  0.9998903      -0.4949047
0.04                   0.9998858      -0.5498804
0.044                   0.999881      -0.6048518
0.048                  0.9998755      -0.6598186
0.052                  0.9998699      -0.7147801
0.056                  0.9998636      -0.7697363
0.06                    0.999857      -0.8246867
0.064                    0.99985      -0.8796311
0.068                  0.9998426      -0.9345691
0.072                  0.9998349      -0.9895001
0.076                  0.9998267       -1.044424
0.08                   0.9998183       -1.099341
0.084                  0.9998092        -1.15425
0.088                  0.9998002       -1.209151
0.092                  0.9997906       -1.264044
0.096                  0.9997808       -1.318929
0.1                    0.9997707       -1.373806
0.104                  0.9997602       -1.428674
0.108                  0.9997496       -1.483534
0.112                  0.9997388       -1.538384
0.116                  0.9997276       -1.593226
0.12                   0.9997162        -1.64806
0.124                  0.9997047       -1.702884
0.128                   0.999693         -1.7577
0.132                  0.9996811       -1.812508
0.136                   0.999669       -1.867307
0.14                   0.9996568       -1.922098
0.144                  0.9996447        -1.97688
0.148                  0.9996324       -2.031656
0.152                  0.9996201       -2.086424
0.156                  0.9996077       -2.141185
0.16                   0.9995953       -2.195939
0.164                  0.9995829       -2.250688
0.168                  0.9995707       -2.305431
0.172                  0.9995584       -2.360169
0.176                  0.9995463       -2.414902
0.18                   0.9995343       -2.469633
0.184                  0.9995224        -2.52436
0.188                  0.9995105       -2.579086
0.192                   0.999499        -2.63381
0.196                  0.9994876       -2.688534
0.2                    0.9994766        -2.74326
0.204                  0.9994657       -2.797987
0.208                  0.9994551       -2.852717
0.212                  0.9994448       -2.907452
0.216                  0.9994349       -2.962193
0.22                   0.9994253       -3.016941
0.224                   0.999416       -3.071697
0.228                  0.9994073       -3.126463
0.232                  0.9993989        -3.18124
0.236                  0.9993909       -3.236032
0.24                   0.9993834       -3.290837
0.244                  0.9993765       -3.345659
0.248                    0.99937         -3.4005
0.252                   0.999364       -3.455362
0.256                  0.9993586       -3.510245
0.26                   0.9993537       -3.565152
0.264                  0.9993494       -3.620087
0.268                  0.9993458        -3.67505
0.272                  0.9993427       -3.730043
0.276                  0.9993403       -3.785069
0.28                   0.9993384       -3.840131
0.284                  0.9993372       -3.895231
0.288                  0.9993367       -3.950371
0.292                  0.9993368       -4.005553
0.296                  0.9993377        -4.06078
0.3                    0.9993393       -4.116055
0.304                  0.9993413       -4.171381
0.308                  0.9993443       -4.226759
0.312                  0.9993479       -4.282192
0.316                  0.9993521       -4.337683
0.32                    0.999357       -4.393236
0.324                  0.9993628       -4.448851
0.328                   0.999369       -4.504533
0.332                   0.999376       -4.560285
0.336                  0.9993837       -4.616107
0.34                    0.999392       -4.672004
0.344                  0.9994009       -4.727978
0.348                  0.9994105       -4.784032
0.352                  0.9994208       -4.840168
0.356                  0.9994316        -4.89639
0.36                   0.9994429       -4.952699
0.364                  0.9994549       -5.009098
0.368                  0.9994674       -5.065591
0.372                  0.9994805       -5.122179
0.376                  0.9994939       -5.178866
0.38                   0.9995079       -5.235652
0.384                  0.9995223       -5.292542
0.388                  0.9995372       -5.349536
0.392                  0.9995523       -5.406639
0.396                  0.9995679        -5.46385
0.4                    0.9995836       -5.521175
0.404                  0.9995997       -5.578611
0.408                  0.9996161       -5.636164
0.412                  0.9996325       -5.693835
0.416                  0.9996492       -5.751625
0.42                    0.999666       -5.809535
0.424                  0.9996829       -5.867568
0.428                  0.9996998       -5.925726
0.432                  0.9997166       -5.984008
0.436                  0.9997334       -6.042417
0.44                     0.99975       -6.100954
0.444                  0.9997667       -6.159618
0.448                  0.9997829       -6.218414
0.452                   0.999799       -6.277338
0.456                  0.9998149       -6.336393
0.46                   0.9998304       -6.395581
0.464                  0.9998454         -6.4549
0.468                  0.9998601       -6.514349
0.472                  0.9998742       -6.573932
0.476                  0.9998879       -6.633647
0.48                   0.9999009       -6.693493
0.484                  0.9999134       -6.753471
0.488                  0.9999252       -6.813579
0.492                  0.9999362       -6.873819
0.496                  0.9999466       -6.934189
0.5                    0.9999561       -6.994687
0.504                  0.9999648       -7.055313
0.508                  0.9999727       -7.116067
0.512                  0.9999796       -7.176946
0.516                  0.9999856       -7.237951
0.52                   0.9999905       -7.299079
0.524                  0.9999944       -7.360327
0.528                  0.9999974       -7.421696
0.532                  0.9999992       -7.483185
0.536                          1       -7.544789
0.54                   0.9999996       -7.606508
0.544                   0.999998       -7.668341
0.548                  0.9999954       -7.730284
0.552                  0.9999915       -7.792336
0.556                  0.9999865       -7.854493
0.56                   0.9999802       -7.916757
0.564                  0.9999726       -7.979123
0.568                  0.9999639       -8.041587
0.572                   0.999954        -8.10415
0.576                  0.9999427       -8.166808
0.58                   0.9999303       -8.229559
0.584                  0.9999166       -8.292401
0.588                  0.9999018        -8.35533
0.592                  0.9998858       -8.418345
0.596                  0.9998684       -8.481445
0.6                      0.99985       -8.544624
0.604                  0.9998303       -8.607885
0.608                  0.9998096       -8.671219
0.612                  0.9997877       -8.734632
0.616                  0.9997647       -8.798115
0.62                   0.9997407        -8.86167
0.624                  0.9997158       -8.925292
0.628                  0.9996898       -8.988983
0.632                  0.9996629       -9.052739
0.636                  0.9996351       -9.116559
0.64                   0.9996064        -9.18044
0.644                   0.999577       -9.244381
0.648                  0.9995469       -9.308384
0.652                   0.999516       -9.372445
0.656                  0.9994845       -9.436563
0.66                   0.9994524       -9.500739
0.664                  0.9994198       -9.564973
0.668                  0.9993868        -9.62926
0.672                  0.9993534       -9.693606
0.676                  0.9993196       -9.758007
0.68                   0.9992856       -9.822465
0.684                  0.9992513       -9.886979
0.688                  0.9992171        -9.95155
0.692                  0.9991826       -10.01618
0.696                  0.9991483       -10.08087
0.7                    0.9991139       -10.14562
0.704                  0.9990798       -10.21043
0.708                  0.9990459       -10.27531
0.712                  0.9990123       -10.34025
0.716                  0.9989791       -10.40526
0.72                   0.9989463       -10.47034
0.724                  0.9989139       -10.53549
0.728                  0.9988823       -10.60072
0.732                  0.9988512       -10.66603
0.736                  0.9988209       -10.73143
0.74                   0.9987913        -10.7969
0.744                  0.9987626       -10.86247
0.748                  0.9987349       -10.92813
0.752                  0.9987079        -10.9939
0.756                  0.9986822       -11.05976
0.76                   0.9986574       -11.12573
0.764                  0.9986339       -11.19181
0.768                  0.9986113       -11.25802
0.772                  0.9985901       -11.32434
0.776                  0.9985701       -11.39079
0.78                   0.9985516       -11.45738
0.784                  0.9985343       -11.52411
0.788                  0.9985184       -11.59098
0.792                   0.998504         -11.658
0.796                  0.9984909       -11.72518
0.8                    0.9984792       -11.79253
0.804                  0.9984691       -11.86004
0.808                  0.9984605       -11.92774
0.812                  0.9984533       -11.99561
0.816                  0.9984476       -12.06368
0.82                   0.9984433       -12.13195
0.824                  0.9984407       -12.20042
0.828                  0.9984395        -12.2691
0.832                  0.9984397         -12.338
0.836                  0.9984414       -12.40712
0.84                   0.9984443       -12.47648
0.844                  0.9984488       -12.54607
0.848                  0.9984546       -12.61591
0.852                  0.9984617         -12.686
0.856                    0.99847       -12.75635
0.86                   0.9984795       -12.82697
0.864                  0.9984902       -12.89786
0.868                   0.998502       -12.96903
0.872                  0.9985149       -13.04048
0.876                  0.9985286       -13.11222
0.88                   0.9985432       -13.18426
0.884                  0.9985587        -13.2566
0.888                  0.9985749       -13.32925
0.892                  0.9985917       -13.40222
0.896                  0.9986091        -13.4755
0.9                     0.998627       -13.54911
0.904                  0.9986452       -13.62305
0.908                  0.9986638       -13.69732
0.912                  0.9986825       -13.77193
0.916                  0.9987012       -13.84688
0.92                   0.9987198       -13.92218
0.924                  0.9987384       -13.99783
0.928                  0.9987567       -14.07383
0.932                  0.9987747       -14.15019
0.936                  0.9987921        -14.2269
0.94                   0.9988089       -14.30398
0.944                  0.9988249       -14.38142
0.948                  0.9988401       -14.45923
0.952                  0.9988543        -14.5374
0.956                  0.9988676       -14.61594
0.96                   0.9988796       -14.69485
0.964                  0.9988902       -14.77413
0.968                  0.9988995       -14.85377
0.972                  0.9989071       -14.93379
0.976                  0.9989133       -15.01417
0.98                   0.9989175       -15.09493
0.984                    0.99892       -15.17605
0.988                  0.9989203       -15.25754
0.992                  0.9989186       -15.33939
0.996                  0.9989148        -15.4216
1                      0.9989086       -15.50417
1.004                     0.9989       -15.58711
1.008                   0.998889       -15.67039
1.012                  0.9988755       -15.75403
1.016                  0.9988592       -15.83802
1.02                   0.9988402       -15.92235
1.024                  0.9988184       -16.00703
1.028                  0.9987938       -16.09205
1.032                  0.9987662        -16.1774
1.036                  0.9987356       -16.26305
1.04                   0.9987021       -16.34908
1.044                  0.9986654       -16.43542
1.048                  0.9986255       -16.52205
1.052                  0.9985825       -16.60902
1.056                  0.9985363       -16.69628
1.06                    0.998487       -16.78384
1.064                  0.9984345        -16.8717
1.068                  0.9983786       -16.95987
1.072                  0.9983196       -17.04831
1.076                  0.9982573       -17.13704
1.08                   0.9981917       -17.22605
1.084                  0.9981231       -17.31534
1.088                  0.9980513        -17.4049
1.092                  0.9979764       -17.49473
1.096                  0.9978984       -17.58478
1.1                    0.9978174       -17.67515
1.104                  0.9977333       -17.76572
1.108                  0.9976464       -17.85654
1.112                  0.9975567       -17.94762
1.116                  0.9974641       -18.03896
1.12                   0.9973689       -18.13054
1.124                  0.9972711       -18.22233
1.128                  0.9971707       -18.31433
1.132                  0.9970681        -18.4066
1.136                   0.996963       -18.49908
1.14                   0.9968557        -18.5918
1.144                  0.9967466       -18.68474
1.148                  0.9966352        -18.7779
1.152                  0.9965221       -18.87129
1.156                  0.9964074       -18.96491
1.16                    0.996291       -19.05875
1.164                  0.9961732       -19.15281
1.168                  0.9960541       -19.24711
1.172                  0.9959339       -19.34163
1.176                  0.9958126       -19.43639
1.18                   0.9956905       -19.53138
1.184                  0.9955677       -19.62661
1.188                  0.9954442       -19.72209
1.192                  0.9953204       -19.81781
1.196                  0.9951962       -19.91378
1.2                     0.995072       -20.01002
1.204                  0.9949477       -20.10652
1.208                  0.9948236       -20.20328
1.212                  0.9946998       -20.30033
1.216                  0.9945764       -20.39766
1.22                   0.9944536       -20.49529
1.224                  0.9943316       -20.59323
1.228                  0.9942103       -20.69147
1.232                  0.9940901       -20.79005
1.236                   0.993971       -20.88895
1.24                   0.9938531        -20.9882
1.244                  0.9937365       -21.08781
1.248                  0.9936212       -21.18779
1.252                  0.9935075       -21.28815
1.256                  0.9933955        -21.3889
1.26                   0.9932853       -21.49007
1.264                  0.9931767       -21.59165
1.268                    0.99307       -21.69368
1.272                  0.9929653       -21.79616
1.276                  0.9928624       -21.89911
1.28                   0.9927618       -22.00253
1.284                  0.9926629       -22.10647
1.288                  0.9925663       -22.21091
1.292                  0.9924717       -22.31589
1.296                  0.9923792       -22.42141
1.3                    0.9922888        -22.5275
1.304                  0.9922004       -22.63418
1.308                  0.9921141       -22.74145
1.312                  0.9920298       -22.84935
1.316                  0.9919474       -22.95788
1.32                   0.9918669       -23.06706
1.324                  0.9917882       -23.17692
1.328                  0.9917112       -23.28746
1.332                  0.9916358       -23.39872
1.336                   0.991562       -23.51069
1.34                   0.9914895       -23.62342
1.344                  0.9914184        -23.7369
1.348                  0.9913483       -23.85116
1.352                  0.9912792       -23.96621
1.356                   0.991211       -24.08208
1.36                   0.9911432       -24.19878
1.364                  0.9910761       -24.31632
1.368                  0.9910091       -24.43473
1.372                  0.9909422       -24.55401
1.376                  0.9908752       -24.67419
1.38                   0.9908077       -24.79528
1.384                  0.9907396       -24.91729
1.388                  0.9906706       -25.04024
1.392                  0.9906005       -25.16415
1.396                  0.9905291       -25.28902
1.4                    0.9904559       -25.41487
1.404                  0.9903809       -25.54171
1.408                  0.9903037       -25.66956
1.412                   0.990224       -25.79842
1.416                  0.9901416       -25.92831
1.42                    0.990056       -26.05923
1.424                   0.989967        -26.1912
1.428                  0.9898746       -26.32423
1.432                  0.9897781       -26.45832
1.436                  0.9896772       -26.59348
1.44                   0.9895719       -26.72973
1.444                  0.9894617       -26.86705
1.448                  0.9893462       -27.00547
1.452                  0.9892251       -27.14499
1.456                  0.9890984       -27.28561
1.46                   0.9889655       -27.42734
1.464                  0.9888261       -27.57017
1.468                  0.9886801       -27.71412
1.472                   0.988527       -27.85918
1.476                  0.9883666       -28.00536
1.48                   0.9881986       -28.15266
1.484                  0.9880227       -28.30107
1.488                  0.9878387        -28.4506
1.492                  0.9876461       -28.60126
1.496                   0.987445       -28.75302
1.5                    0.9872349       -28.90591
1.504                  0.9870156       -29.05991
1.508                  0.9867869       -29.21501
1.512                  0.9865485       -29.37123
1.516                  0.9863001       -29.52855
1.52                   0.9860419       -29.68698
1.524                  0.9857733        -29.8465
1.528                  0.9854942       -30.00712
1.532                  0.9852046       -30.16883
1.536                  0.9849041       -30.33163
1.54                   0.9845927       -30.49551
1.544                  0.9842702       -30.66047
1.548                  0.9839366        -30.8265
1.552                  0.9835916        -30.9936
1.556                  0.9832354       -31.16177
1.56                   0.9828676       -31.33099
1.564                  0.9824883       -31.50128
1.568                  0.9820975       -31.67261
1.572                   0.981695         -31.845
1.576                  0.9812808       -32.01843
1.58                   0.9808551        -32.1929
1.584                  0.9804177       -32.36842
1.588                  0.9799687       -32.54498
1.592                   0.979508       -32.72257
1.596                  0.9790359       -32.90119
1.6                    0.9785522       -33.08085
1.604                   0.978057       -33.26155
1.608                  0.9775508       -33.44328
1.612                  0.9770331       -33.62606
1.616                  0.9765042       -33.80987
1.62                   0.9759644       -33.99472
1.624                  0.9754137       -34.18063
1.628                  0.9748521       -34.36759
1.632                  0.9742799       -34.55561
1.636                  0.9736973        -34.7447
1.64                   0.9731045       -34.93487
1.644                  0.9725013       -35.12613
1.648                  0.9718882       -35.31848
1.652                  0.9712654       -35.51194
1.656                  0.9706328       -35.70654
1.66                    0.969991       -35.90227
1.664                  0.9693398       -36.09915
1.668                  0.9686795       -36.29721
1.672                  0.9680105       -36.49645
1.676                  0.9673327       -36.69692
1.68                   0.9666463       -36.89861
1.684                  0.9659517       -37.10158
1.688                   0.965249       -37.30582
1.692                  0.9645383       -37.51138
1.696                  0.9638196       -37.71828
1.7                    0.9630935       -37.92654
1.704                  0.9623597       -38.13621
1.708                  0.9616186       -38.34731
1.712                  0.9608702       -38.55989
1.716                  0.9601148       -38.77397
1.72                   0.9593524        -38.9896
1.724                  0.9585829        -39.2068
1.728                  0.9578065       -39.42564
1.732                  0.9570234       -39.64614
1.736                  0.9562333       -39.86837
1.74                   0.9554366       -40.09235
1.744                  0.9546328       -40.31815
1.748                  0.9538224       -40.54579
1.752                  0.9530051       -40.77534
1.756                  0.9521807       -41.00685
1.76                   0.9513492       -41.24038
1.764                  0.9505105       -41.47598
1.768                  0.9496644        -41.7137
1.772                  0.9488107       -41.95359
1.776                  0.9479492       -42.19574
1.78                   0.9470796       -42.44019
1.784                  0.9462016       -42.68699
1.788                   0.945315       -42.93623
1.792                  0.9444194       -43.18795
1.796                  0.9435143       -43.44222
1.8                    0.9425995        -43.6991
1.804                  0.9416744       -43.95867
1.808                  0.9407386         -44.221
1.812                  0.9397914       -44.48613
1.816                  0.9388324       -44.75415
1.82                    0.937861       -45.02513
1.824                  0.9368765       -45.29913
1.828                  0.9358783       -45.57622
1.832                  0.9348656       -45.85648
1.836                  0.9338378       -46.13996
1.84                    0.932794       -46.42674
1.844                  0.9317334        -46.7169
1.848                  0.9306553       -47.01051
1.852                  0.9295586       -47.30763
1.856                  0.9284425       -47.60833
1.86                    0.927306       -47.91269
1.864                  0.9261481       -48.22077
1.868                  0.9249679       -48.53265
1.872                  0.9237642        -48.8484
1.876                   0.922536       -49.16808
1.88                   0.9212821       -49.49175
1.884                  0.9200015        -49.8195
1.888                  0.9186928       -50.15139
1.892                  0.9173551       -50.48748
1.896                  0.9159868       -50.82785
1.9                    0.9145869       -51.17256
1.904                   0.913154       -51.52167
1.908                  0.9116869       -51.87524
1.912                  0.9101842       -52.23334
1.916                  0.9086446       -52.59604
1.92                   0.9070665        -52.9634
1.924                  0.9054487       -53.33548
1.928                  0.9037901       -53.71232
1.932                  0.9020887         -54.094
1.936                  0.9003435       -54.48058
1.94                   0.8985527       -54.87211
1.944                  0.8967152       -55.26864
1.948                  0.8948294       -55.67025
1.952                  0.8928937       -56.07697
1.956                  0.8909069       -56.48886
1.96                   0.8888673       -56.90597
1.964                  0.8867735       -57.32837
1.968                  0.8846241       -57.75609
1.972                  0.8824175        -58.1892
1.976                  0.8801524       -58.62773
1.98                   0.8778272       -59.07174
1.984                  0.8754405       -59.52127
1.988                  0.8729908       -59.97639
1.992                  0.8704768       -60.43712
1.996                  0.8678971       -60.90352
2                      0.8652502       -61.37565
2.004                  0.8625348       -61.85352
2.008                  0.8597494       -62.33721
2.012                  0.8568929       -62.82675
2.016                  0.8539637        -63.3222
2.02                   0.8509609       -63.82357
2.024                  0.8478828       -64.33094
2.028                  0.8447286       -64.84435
2.032                  0.8414968       -65.36384
2.036                  0.8381864       -65.88945
2.04                   0.8347961       -66.42125
2.044                  0.8313251       -66.95926
2.048                  0.8277722       -67.50353
2.052                  0.8241362       -68.05414
2.056                  0.8204163        -68.6111
2.06                   0.8166117       -69.17449
2.064                  0.8127213       -69.74435
2.068                  0.8087444       -70.32073
2.072                  0.8046801       -70.90369
2.076                  0.8005277       -71.49329
2.08                   0.7962867        -72.0896
2.084                  0.7919562       -72.69265
2.088                  0.7875357       -73.30252
2.092                  0.7830248       -73.91928
2.096                  0.7784229         -74.543
2.1                    0.7737296       -75.17375
2.104                  0.7689447        -75.8116
2.108                  0.7640678       -76.45663
2.112                  0.7590986       -77.10894
2.116                  0.7540371       -77.76858
2.12                   0.7488832       -78.43566
2.124                  0.7436367       -79.11029
2.128                  0.7382978       -79.79257
2.132                  0.7328666       -80.48257
2.136                  0.7273432       -81.18044
2.14                   0.7217279       -81.88627
2.144                  0.7160211       -82.60019
2.148                  0.7102231       -83.32236
2.152                  0.7043345       -84.05286
2.156                  0.6983557       -84.79189
2.16                   0.6922873       -85.53958
2.164                  0.6861304       -86.29609
2.168                  0.6798854       -87.06162
2.172                  0.6735533        -87.8363
2.176                  0.6671352       -88.62038
2.18                    0.660632       -89.41402
2.184                  0.6540447       -90.21746
2.188                  0.6473748       -91.03091
2.192                  0.6406235       -91.85463
2.196                  0.6337924        -92.6889
2.2                    0.6268827       -93.53395
2.204                  0.6198962       -94.39008
2.208                  0.6128346       -95.25761
2.212                  0.6056997       -96.13686
2.216                  0.5984934       -97.02817
2.22                   0.5912176       -97.93192
2.224                  0.5838747        -98.8485
2.228                  0.5764668       -99.77831
2.232                  0.5689962       -100.7218
2.236                  0.5614654       -101.6794
2.24                   0.5538773       -102.6517
2.244                  0.5462342       -103.6391
2.248                  0.5385394       -104.6423
2.252                  0.5307956       -105.6618
2.256                  0.5230061       -106.6982
2.26                   0.5151742       -107.7523
2.264                  0.5073035       -108.8248
2.268                  0.4993975       -109.9163
2.272                  0.4914601       -111.0278
2.276                  0.4834952         -112.16
2.28                   0.4755072        -113.314
2.284                  0.4675004       -114.4906
2.288                  0.4594794        -115.691
2.292                  0.4514492       -116.9162
2.296                  0.4434147       -118.1673
2.3                    0.4353815       -119.4457
2.304                  0.4273551       -120.7526
2.308                  0.4193414       -122.0895
2.312                  0.4113467       -123.4578
2.316                  0.4033777        -124.859
2.32                   0.3954411       -126.2949
2.324                  0.3875444       -127.7672
2.328                  0.3796952       -129.2778
2.332                  0.3719017       -130.8284
2.336                  0.3641725       -132.4213
2.34                   0.3565166       -134.0584
2.344                  0.3489438        -135.742
2.348                  0.3414639       -137.4743
2.352                  0.3340879       -139.2577