! TOUCHSTONE file generated by CST MICROWAVE STUDIO
! Date and time: Thu May 12 18:27:59 2022
! Project name: AppElm_antenne_dipole_FR4.cst
! Parameters = {L=38.8; e=0.035; f=2.45e+09; h=1.6; i=0.8; l1=4; lambda=122.449; ls=33; wl=1.7; ws=80}
! Header version: 2018
! Port assignment regex: !\s*Touchstone port\s*([0-9]+)\s*=\s*(CST MWS port|CST DS port)\s*([0-9]+|Zmin|Zmax)\s*\(\"(.*)\"\)(\s*mode\s*([0-9]+))?.*
! Touchstone port assignment:
! Touchstone port 1 = CST MWS port 1 ("")
# GHz S MA R 50
0                      0.9999158              -0
0.004                  0.9999155     -0.05504831
0.008                  0.9999147       -0.110096
0.012                  0.9999134      -0.1651425
0.016                  0.9999115      -0.2201872
0.02                   0.9999092      -0.2752296
0.024                  0.9999062       -0.330269
0.028                  0.9999029      -0.3853048
0.032                   0.999899      -0.4403365
0.036                  0.9998946      -0.4953635
0.04                   0.9998896      -0.5503854
0.044                  0.9998843      -0.6054014
0.048                  0.9998784      -0.6604112
0.052                  0.9998721      -0.7154142
0.056                  0.9998651      -0.7704098
0.06                   0.9998581      -0.8253977
0.064                  0.9998503      -0.8803774
0.068                  0.9998422      -0.9353483
0.072                  0.9998336      -0.9903103
0.076                  0.9998246       -1.045263
0.08                   0.9998154       -1.100205
0.084                  0.9998056       -1.155138
0.088                  0.9997956        -1.21006
0.092                  0.9997852       -1.264972
0.096                  0.9997744       -1.319872
0.1                    0.9997634       -1.374761
0.104                  0.9997521       -1.429639
0.108                  0.9997404       -1.484505
0.112                  0.9997287        -1.53936
0.116                  0.9997165       -1.594203
0.12                   0.9997041       -1.649034
0.124                  0.9996917       -1.703854
0.128                  0.9996791       -1.758662
0.132                  0.9996662       -1.813459
0.136                  0.9996533       -1.868245
0.14                   0.9996402       -1.923019
0.144                  0.9996272       -1.977783
0.148                   0.999614       -2.032537
0.152                  0.9996007        -2.08728
0.156                  0.9995875       -2.142013
0.16                   0.9995744       -2.196738
0.164                  0.9995612       -2.251455
0.168                  0.9995482       -2.306163
0.172                  0.9995353       -2.360864
0.176                  0.9995224       -2.415559
0.18                   0.9995097       -2.470248
0.184                  0.9994972       -2.524932
0.188                  0.9994849       -2.579612
0.192                  0.9994727        -2.63429
0.196                  0.9994609       -2.688966
0.2                    0.9994494       -2.743642
0.204                   0.999438       -2.798318
0.208                  0.9994272       -2.852996
0.212                  0.9994165       -2.907678
0.216                  0.9994064       -2.962365
0.22                   0.9993966       -3.017058
0.224                  0.9993872       -3.071758
0.228                  0.9993784       -3.126468
0.232                  0.9993698        -3.18119
0.236                  0.9993619       -3.235924
0.24                   0.9993545       -3.290674
0.244                  0.9993476        -3.34544
0.248                  0.9993413       -3.400225
0.252                  0.9993355       -3.455031
0.256                  0.9993303        -3.50986
0.26                   0.9993258       -3.564714
0.264                  0.9993219       -3.619595
0.268                  0.9993186       -3.674507
0.272                  0.9993159        -3.72945
0.276                   0.999314       -3.784428
0.28                   0.9993127       -3.839442
0.284                  0.9993121       -3.894497
0.288                  0.9993122       -3.949592
0.292                   0.999313       -4.004733
0.296                  0.9993146        -4.05992
0.3                    0.9993167       -4.115158
0.304                  0.9993197       -4.170448
0.308                  0.9993235       -4.225792
0.312                  0.9993279       -4.281196
0.316                   0.999333       -4.336659
0.32                   0.9993388       -4.392186
0.324                  0.9993453        -4.44778
0.328                  0.9993526       -4.503442
0.332                  0.9993604       -4.559176
0.336                  0.9993691       -4.614984
0.34                   0.9993784        -4.67087
0.344                  0.9993883       -4.726836
0.348                  0.9993988       -4.782885
0.352                  0.9994101       -4.839019
0.356                  0.9994218       -4.895241
0.36                   0.9994341       -4.951554
0.364                  0.9994471        -5.00796
0.368                  0.9994605       -5.064463
0.372                  0.9994745       -5.121064
0.376                  0.9994889       -5.177766
0.38                   0.9995038       -5.234571
0.384                  0.9995191       -5.291482
0.388                  0.9995348         -5.3485
0.392                  0.9995509       -5.405629
0.396                  0.9995671        -5.46287
0.4                    0.9995837       -5.520225
0.404                  0.9996007       -5.577696
0.408                  0.9996177       -5.635286
0.412                  0.9996349       -5.692995
0.416                  0.9996522       -5.750826
0.42                   0.9996696       -5.808779
0.424                   0.999687       -5.866857
0.428                  0.9997044        -5.92506
0.432                  0.9997218        -5.98339
0.436                   0.999739       -6.041849
0.44                   0.9997561       -6.100436
0.444                  0.9997729       -6.159153
0.448                  0.9997896          -6.218
0.452                   0.999806       -6.276978
0.456                  0.9998219       -6.336088
0.46                   0.9998376        -6.39533
0.464                  0.9998527       -6.454703
0.468                  0.9998672        -6.51421
0.472                  0.9998815       -6.573847
0.476                  0.9998951       -6.633617
0.48                    0.999908       -6.693518
0.484                  0.9999202        -6.75355
0.488                  0.9999318       -6.813714
0.492                  0.9999425       -6.874006
0.496                  0.9999525       -6.934427
0.5                    0.9999617       -6.994977
0.504                  0.9999699       -7.055653
0.508                  0.9999773       -7.116455
0.512                  0.9999836       -7.177381
0.516                   0.999989       -7.238431
0.52                   0.9999934       -7.299602
0.524                  0.9999966       -7.360892
0.528                  0.9999989       -7.422301
0.532                          1       -7.483825
0.536                          1       -7.545464
0.54                   0.9999988       -7.607217
0.544                  0.9999964       -7.669079
0.548                  0.9999928        -7.73105
0.552                  0.9999881       -7.793126
0.556                   0.999982       -7.855306
0.56                   0.9999748       -7.917586
0.564                  0.9999661       -7.979969
0.568                  0.9999566       -8.042446
0.572                  0.9999457       -8.105019
0.576                  0.9999333       -8.167684
0.58                   0.9999199       -8.230437
0.584                  0.9999053       -8.293279
0.588                  0.9998893       -8.356205
0.592                  0.9998721       -8.419216
0.596                  0.9998539       -8.482304
0.6                    0.9998343       -8.545472
0.604                  0.9998136       -8.608717
0.608                   0.999792       -8.672034
0.612                  0.9997691       -8.735423
0.616                  0.9997452       -8.798884
0.62                   0.9997203        -8.86241
0.624                  0.9996944       -8.926002
0.628                  0.9996676       -8.989659
0.632                  0.9996398       -9.053377
0.636                   0.999611       -9.117159
0.64                   0.9995816       -9.180998
0.644                  0.9995515       -9.244896
0.648                  0.9995206       -9.308853
0.652                  0.9994891       -9.372865
0.656                  0.9994569       -9.436935
0.66                   0.9994242       -9.501058
0.664                  0.9993911       -9.565236
0.668                  0.9993576       -9.629468
0.672                  0.9993237       -9.693755
0.676                  0.9992895       -9.758098
0.68                   0.9992551       -9.822495
0.684                  0.9992207       -9.886948
0.688                   0.999186       -9.951457
0.692                  0.9991515       -10.01602
0.696                   0.999117       -10.08065
0.7                    0.9990826       -10.14534
0.704                  0.9990485       -10.21009
0.708                  0.9990146        -10.2749
0.712                  0.9989811       -10.33978
0.716                   0.998948       -10.40472
0.72                   0.9989154       -10.46974
0.724                  0.9988835       -10.53483
0.728                  0.9988521           -10.6
0.732                  0.9988213       -10.66525
0.736                  0.9987915       -10.73058
0.74                   0.9987624         -10.796
0.744                  0.9987342       -10.86151
0.748                   0.998707       -10.92712
0.752                  0.9986808       -10.99283
0.756                  0.9986557       -11.05864
0.76                   0.9986316       -11.12456
0.764                  0.9986087        -11.1906
0.768                  0.9985871       -11.25676
0.772                  0.9985668       -11.32304
0.776                  0.9985478       -11.38945
0.78                   0.9985301         -11.456
0.784                  0.9985137       -11.52269
0.788                  0.9984987       -11.58954
0.792                  0.9984852       -11.65653
0.796                  0.9984732       -11.72369
0.8                    0.9984626       -11.79101
0.804                  0.9984535       -11.85851
0.808                  0.9984459       -11.92619
0.812                  0.9984398       -11.99405
0.816                  0.9984352       -12.06211
0.82                   0.9984321       -12.13037
0.824                  0.9984305       -12.19884
0.828                  0.9984304       -12.26752
0.832                  0.9984316       -12.33643
0.836                  0.9984344       -12.40556
0.84                   0.9984385       -12.47493
0.844                   0.998444       -12.54453
0.848                  0.9984508       -12.61439
0.852                  0.9984589       -12.68451
0.856                  0.9984681       -12.75488
0.86                   0.9984787       -12.82552
0.864                  0.9984903       -12.89644
0.868                  0.9985031       -12.96764
0.872                  0.9985167       -13.03913
0.876                  0.9985312       -13.11091
0.88                   0.9985467       -13.18299
0.884                  0.9985629       -13.25538
0.888                  0.9985797       -13.32808
0.892                  0.9985972       -13.40109
0.896                  0.9986152       -13.47442
0.9                    0.9986336       -13.54808
0.904                  0.9986523       -13.62208
0.908                  0.9986712        -13.6964
0.912                  0.9986903       -13.77107
0.916                  0.9987094       -13.84608
0.92                   0.9987283       -13.92143
0.924                  0.9987469       -13.99714
0.928                  0.9987654        -14.0732
0.932                  0.9987833       -14.14962
0.936                  0.9988007        -14.2264
0.94                   0.9988175       -14.30353
0.944                  0.9988333       -14.38104
0.948                  0.9988484        -14.4589
0.952                  0.9988625       -14.53713
0.956                  0.9988754       -14.61573
0.96                    0.998887       -14.69469
0.964                  0.9988973       -14.77403
0.968                   0.998906       -14.85373
0.972                  0.9989131        -14.9338
0.976                  0.9989185       -15.01424
0.98                    0.998922       -15.09504
0.984                  0.9989237       -15.17621
0.988                  0.9989234       -15.25774
0.992                  0.9989209       -15.33963
0.996                  0.9989161       -15.42189
1                      0.9989091        -15.5045
1.004                  0.9988995       -15.58747
1.008                  0.9988875       -15.67079
1.012                  0.9988728       -15.75445
1.016                  0.9988554       -15.83847
1.02                   0.9988354       -15.92282
1.024                  0.9988125       -16.00752
1.028                  0.9987867       -16.09257
1.032                  0.9987578       -16.17792
1.036                  0.9987261       -16.26363
1.04                   0.9986912        -16.3496
1.044                  0.9986533       -16.43594
1.048                  0.9986121       -16.52257
1.052                  0.9985679       -16.60953
1.056                  0.9985204       -16.69677
1.06                   0.9984698       -16.78433
1.064                  0.9984159       -16.87217
1.068                  0.9983589       -16.96031
1.072                  0.9982986       -17.04874
1.076                  0.9982351       -17.13743
1.08                   0.9981684       -17.22641
1.084                  0.9980985       -17.31564
1.088                  0.9980256       -17.40514
1.092                  0.9979494       -17.49495
1.096                  0.9978704       -17.58497
1.1                    0.9977883       -17.67523
1.104                  0.9977033       -17.76575
1.108                  0.9976153       -17.85654
1.112                  0.9975246       -17.94754
1.116                  0.9974312       -18.03882
1.12                   0.9973352       -18.13032
1.124                  0.9972365       -18.22201
1.128                  0.9971354       -18.31397
1.132                  0.9970321       -18.40615
1.136                  0.9969263       -18.49856
1.14                   0.9968186       -18.59118
1.144                  0.9967089       -18.68404
1.148                  0.9965972       -18.77712
1.152                  0.9964838       -18.87042
1.156                  0.9963687       -18.96394
1.16                   0.9962521       -19.05769
1.164                  0.9961342       -19.15166
1.168                  0.9960151       -19.24587
1.172                  0.9958949        -19.3403
1.176                  0.9957737       -19.43496
1.18                   0.9956517       -19.52986
1.184                  0.9955291         -19.625
1.188                  0.9954059       -19.72038
1.192                  0.9952826         -19.816
1.196                  0.9951588       -19.91189
1.2                    0.9950351       -20.00803
1.204                  0.9949114       -20.10444
1.208                   0.994788       -20.20111
1.212                  0.9946649       -20.29808
1.216                  0.9945424       -20.39532
1.22                   0.9944205       -20.49287
1.224                  0.9942994       -20.59072
1.228                  0.9941792       -20.68889
1.232                  0.9940599       -20.78739
1.236                  0.9939419       -20.88622
1.24                   0.9938252        -20.9854
1.244                  0.9937099       -21.08494
1.248                  0.9935958       -21.18486
1.252                  0.9934835       -21.28516
1.256                  0.9933728       -21.38586
1.26                   0.9932639       -21.48697
1.264                  0.9931569       -21.58851
1.268                  0.9930517       -21.69049
1.272                  0.9929484       -21.79292
1.276                  0.9928471       -21.89584
1.28                   0.9927478       -21.99923
1.284                  0.9926507       -22.10313
1.288                  0.9925555       -22.20755
1.292                  0.9924625       -22.31251
1.296                  0.9923716       -22.41802
1.3                    0.9922828        -22.5241
1.304                   0.992196       -22.63077
1.308                  0.9921112       -22.73805
1.312                  0.9920285       -22.84594
1.316                  0.9919476       -22.95448
1.32                   0.9918686       -23.06367
1.324                  0.9917913       -23.17354
1.328                  0.9917158       -23.28411
1.332                  0.9916419       -23.39539
1.336                  0.9915694       -23.50739
1.34                   0.9914983       -23.62014
1.344                  0.9914284       -23.73366
1.348                  0.9913597       -23.84795
1.352                  0.9912917       -23.96305
1.356                  0.9912246       -24.07896
1.36                   0.9911581       -24.19571
1.364                  0.9910918        -24.3133
1.368                  0.9910259       -24.43176
1.372                  0.9909599        -24.5511
1.376                  0.9908935       -24.67133
1.38                   0.9908269       -24.79248
1.384                  0.9907595       -24.91455
1.388                  0.9906911       -25.03757
1.392                  0.9906215       -25.16154
1.396                  0.9905505       -25.28647
1.4                    0.9904779       -25.41238
1.404                  0.9904031       -25.53929
1.408                  0.9903261       -25.66721
1.412                  0.9902465       -25.79614
1.416                  0.9901641       -25.92609
1.42                   0.9900784       -26.05708
1.424                  0.9899896       -26.18911
1.428                  0.9898967       -26.32221
1.432                  0.9897999       -26.45636
1.436                  0.9896989       -26.59158
1.44                   0.9895931       -26.72788
1.444                  0.9894823       -26.86527
1.448                  0.9893664       -27.00374
1.452                  0.9892447       -27.14331
1.456                  0.9891172       -27.28398
1.46                   0.9889836       -27.42575
1.464                  0.9888433       -27.56863
1.468                  0.9886964       -27.71261
1.472                  0.9885423       -27.85771
1.476                  0.9883809       -28.00392
1.48                   0.9882118       -28.15125
1.484                  0.9880349       -28.29968
1.488                  0.9878497       -28.44923
1.492                   0.987656        -28.5999
1.496                  0.9874536       -28.75168
1.5                    0.9872422       -28.90456
1.504                  0.9870217       -29.05856
1.508                  0.9867916       -29.21366
1.512                  0.9865518       -29.36987
1.516                  0.9863022       -29.52718
1.52                   0.9860425       -29.68558
1.524                  0.9857725       -29.84508
1.528                  0.9854922       -30.00566
1.532                  0.9852011       -30.16734
1.536                  0.9848993       -30.33009
1.54                   0.9845866       -30.49392
1.544                   0.984263       -30.65882
1.548                   0.983928       -30.82479
1.552                  0.9835818       -30.99183
1.556                  0.9832243       -31.15992
1.56                   0.9828554       -31.32908
1.564                   0.982475       -31.49928
1.568                  0.9820831       -31.67053
1.572                  0.9816795       -31.84283
1.576                  0.9812646       -32.01616
1.58                   0.9808379       -32.19054
1.584                  0.9803996       -32.36595
1.588                    0.97995       -32.54239
1.592                  0.9794887       -32.71987
1.596                  0.9790159       -32.89838
1.6                    0.9785319       -33.07792
1.604                  0.9780364       -33.25849
1.608                  0.9775296        -33.4401
1.612                  0.9770118       -33.62275
1.616                  0.9764828       -33.80643
1.62                   0.9759429       -33.99115
1.624                  0.9753922       -34.17692
1.628                  0.9748309       -34.36375
1.632                   0.974259       -34.55164
1.636                  0.9736768       -34.74059
1.64                   0.9730845       -34.93062
1.644                   0.972482       -35.12173
1.648                  0.9718697       -35.31395
1.652                  0.9712478       -35.50727
1.656                  0.9706162       -35.70172
1.66                   0.9699753       -35.89731
1.664                  0.9693253       -36.09406
1.668                  0.9686663       -36.29198
1.672                  0.9679986       -36.49111
1.676                  0.9673224       -36.69144
1.68                   0.9666377       -36.89302
1.684                  0.9659447       -37.09586
1.688                  0.9652439       -37.29998
1.692                   0.964535       -37.50543
1.696                  0.9638184       -37.71221
1.7                    0.9630942       -37.92037
1.704                  0.9623627       -38.12995
1.708                  0.9616239       -38.34095
1.712                  0.9608778       -38.55344
1.716                  0.9601247       -38.76744
1.72                   0.9593646       -38.98299
1.724                  0.9585976       -39.20013
1.728                  0.9578238       -39.41891
1.732                  0.9570431       -39.63936
1.736                  0.9562557       -39.86153
1.74                   0.9554616       -40.08547
1.744                  0.9546607       -40.31123
1.748                   0.953853       -40.53885
1.752                  0.9530382       -40.76839
1.756                  0.9522165        -40.9999
1.76                   0.9513878       -41.23342
1.764                  0.9505517       -41.46903
1.768                  0.9497083       -41.70677
1.772                  0.9488574       -41.94669
1.776                  0.9479984       -42.18887
1.78                   0.9471313       -42.43336
1.784                  0.9462559       -42.68022
1.788                  0.9453718       -42.92951
1.792                  0.9444785        -43.1813
1.796                  0.9435758       -43.43564
1.8                    0.9426632       -43.69262
1.804                  0.9417401       -43.95229
1.808                  0.9408063        -44.2147
1.812                  0.9398611       -44.47995
1.816                  0.9389038        -44.7481
1.82                   0.9379341       -45.01919
1.824                  0.9369511       -45.29333
1.828                  0.9359543       -45.57056
1.832                  0.9349428       -45.85095
1.836                  0.9339161       -46.13459
1.84                   0.9328731       -46.42154
1.844                  0.9318133       -46.71186
1.848                  0.9307358       -47.00563
1.852                  0.9296395       -47.30292
1.856                  0.9285235        -47.6038
1.86                    0.927387       -47.90833
1.864                  0.9262289        -48.2166
1.868                  0.9250484       -48.52867
1.872                   0.923844        -48.8446
1.876                  0.9226149       -49.16447
1.88                   0.9213601       -49.48834
1.884                  0.9200781       -49.81627
1.888                  0.9187681       -50.14835
1.892                  0.9174285       -50.48464
1.896                  0.9160583        -50.8252
1.9                    0.9146562       -51.17009
1.904                  0.9132208       -51.51939
1.908                  0.9117512       -51.87314
1.912                  0.9102455       -52.23142
1.916                  0.9087027       -52.59429
1.92                   0.9071213       -52.96183
1.924                     0.9055       -53.33406
1.928                  0.9038374       -53.71106
1.932                  0.9021321        -54.0929
1.936                  0.9003823       -54.47961
1.94                   0.8985871       -54.87129
1.944                  0.8967449       -55.26794
1.948                  0.8948541       -55.66966
1.952                  0.8929132       -56.07648
1.956                  0.8909209       -56.48847
1.96                   0.8888757       -56.90567
1.964                  0.8867761       -57.32813
1.968                  0.8846206       -57.75592
1.972                  0.8824078       -58.18906
1.976                  0.8801363       -58.62762
1.98                   0.8778044       -59.07165
1.984                  0.8754109       -59.52119
1.988                  0.8729542       -59.97628
1.992                   0.870433       -60.43699
1.996                   0.867846       -60.90334
2                      0.8651915       -61.37539
2.004                  0.8624685       -61.85319
2.008                  0.8596754       -62.33677
2.012                  0.8568109       -62.82618
2.016                  0.8538738       -63.32148
2.02                   0.8508627       -63.82269
2.024                  0.8477764       -64.32987
2.028                  0.8446137       -64.84306
2.032                  0.8413735       -65.36232
2.036                  0.8380545       -65.88768
2.04                   0.8346557       -66.41919
2.044                  0.8311759       -66.95689
2.048                  0.8276142       -67.50083
2.052                  0.8239694       -68.05107
2.056                  0.8202407       -68.60766
2.06                   0.8164272       -69.17063
2.064                  0.8125279       -69.74004
2.068                  0.8085421       -70.31596
2.072                  0.8044688       -70.89842
2.076                  0.8003076        -71.4875
2.08                   0.7960576       -72.08323
2.084                  0.7917182       -72.68571
2.088                  0.7872889       -73.29496
2.092                  0.7827692       -73.91107
2.096                  0.7781585       -74.53412
2.1                    0.7734566       -75.16415
2.104                   0.768663       -75.80126
2.108                  0.7637774       -76.44549
2.112                  0.7587999       -77.09697
2.116                  0.7537299       -77.75577
2.12                   0.7485676       -78.42197
2.124                  0.7433129       -79.09568
2.128                  0.7379659       -79.77697
2.132                  0.7325267       -80.46596
2.136                  0.7269954       -81.16278
2.14                   0.7213724       -81.86752
2.144                  0.7156578       -82.58032
2.148                  0.7098523        -83.3013
2.152                  0.7039563        -84.0306
2.156                  0.6979702       -84.76837
2.16                   0.6918949       -85.51476
2.164                  0.6857308       -86.26992
2.168                  0.6794791       -87.03404
2.172                  0.6731403       -87.80728
2.176                  0.6667156       -88.58986
2.18                    0.660206       -89.38197
2.184                  0.6536125       -90.18381
2.188                  0.6469365       -90.99561
2.192                  0.6401793       -91.81764
2.196                  0.6333422       -92.65013
2.2                    0.6264269       -93.49336
2.204                  0.6194349       -94.34763
2.208                  0.6123678       -95.21323
2.212                  0.6052276       -96.09047
2.216                   0.598016       -96.97973
2.22                   0.5907352       -97.88135
2.224                  0.5833873       -98.79573
2.228                  0.5759745       -99.72328
2.232                   0.568499       -100.6644
2.236                  0.5609636       -101.6197
2.24                   0.5533707       -102.5895
2.244                  0.5457231       -103.5743
2.248                  0.5380235       -104.5749
2.252                  0.5302752       -105.5916
2.256                  0.5224811       -106.6253
2.26                   0.5146446       -107.6765
2.264                  0.5067692        -108.746
2.268                  0.4988584       -109.8345
2.272                  0.4909161       -110.9428
2.276                  0.4829463       -112.0718
2.28                   0.4749532       -113.2224
2.284                  0.4669411       -114.3956
2.288                  0.4589147       -115.5924
2.292                  0.4508787       -116.8139
2.296                  0.4428383       -118.0614
2.3                    0.4347988       -119.3359
2.304                  0.4267657       -120.6389
2.308                  0.4187451       -121.9717
2.312                  0.4107429       -123.3358
2.316                   0.402766       -124.7328
2.32                    0.394821       -126.1643
2.324                  0.3869152       -127.6321
2.328                  0.3790565       -129.1381
2.332                  0.3712527       -130.6841
2.336                  0.3635125       -132.2722
2.34                   0.3558448       -133.9046
2.344                  0.3482593       -135.5833
2.348                  0.3407659       -137.3107
2.352                  0.3333753       -139.0892