! TOUCHSTONE file generated by CST MICROWAVE STUDIO
! Date and time: Thu May 12 18:28:02 2022
! Project name: AppElm_antenne_dipole_FR4.cst
! Parameters = {L=38.8; e=0.035; f=2.45e+09; h=1.6; i=0.8; l1=4; lambda=122.449; ls=37.5; wl=1.7; ws=80}
! Header version: 2018
! Port assignment regex: !\s*Touchstone port\s*([0-9]+)\s*=\s*(CST MWS port|CST DS port)\s*([0-9]+|Zmin|Zmax)\s*\(\"(.*)\"\)(\s*mode\s*([0-9]+))?.*
! Touchstone port assignment:
! Touchstone port 1 = CST MWS port 1 ("")
# GHz S MA R 50
0                      0.9981081              -0
0.004                  0.9981095     -0.05132366
0.008                   0.998114      -0.1026574
0.012                  0.9981213      -0.1540113
0.016                  0.9981317      -0.2053953
0.02                   0.9981447      -0.2568194
0.024                  0.9981607      -0.3082932
0.028                  0.9981796      -0.3598266
0.032                  0.9982011      -0.4114289
0.036                  0.9982252      -0.4631095
0.04                   0.9982519      -0.5148773
0.044                  0.9982811      -0.5667413
0.048                  0.9983129      -0.6187096
0.052                  0.9983469      -0.6707909
0.056                   0.998383      -0.7229927
0.06                   0.9984212      -0.7753229
0.064                  0.9984616      -0.8277884
0.068                  0.9985037       -0.880396
0.072                  0.9985475      -0.9331521
0.076                  0.9985929      -0.9860628
0.08                   0.9986398       -1.039133
0.084                   0.998688       -1.092369
0.088                  0.9987373       -1.145774
0.092                  0.9987876       -1.199352
0.096                  0.9988388       -1.253108
0.1                    0.9988906       -1.307044
0.104                  0.9989429       -1.361163
0.108                  0.9989956       -1.415467
0.112                  0.9990485       -1.469957
0.116                  0.9991014       -1.524635
0.12                   0.9991542       -1.579501
0.124                  0.9992066       -1.634554
0.128                  0.9992585       -1.689795
0.132                    0.99931       -1.745222
0.136                  0.9993605       -1.800834
0.14                   0.9994101       -1.856629
0.144                  0.9994586       -1.912603
0.148                   0.999506       -1.968754
0.152                  0.9995517       -2.025078
0.156                   0.999596       -2.081572
0.16                   0.9996386       -2.138231
0.164                  0.9996793       -2.195049
0.168                  0.9997183       -2.252022
0.172                  0.9997548       -2.309144
0.176                  0.9997894       -2.366408
0.18                   0.9998217       -2.423809
0.184                  0.9998514       -2.481339
0.188                  0.9998787       -2.538992
0.192                  0.9999036       -2.596759
0.196                  0.9999255       -2.654634
0.2                    0.9999448       -2.712608
0.204                  0.9999613       -2.770673
0.208                  0.9999749       -2.828822
0.212                  0.9999857       -2.887044
0.216                  0.9999934       -2.945333
0.22                   0.9999982       -3.003678
0.224                          1       -3.062071
0.228                  0.9999988       -3.120504
0.232                  0.9999946       -3.178968
0.236                  0.9999873       -3.237453
0.24                    0.999977       -3.295951
0.244                   0.999964       -3.354452
0.248                  0.9999479        -3.41295
0.252                   0.999929       -3.471434
0.256                  0.9999072       -3.529896
0.26                   0.9998827       -3.588329
0.264                  0.9998555       -3.646724
0.268                  0.9998257       -3.705073
0.272                  0.9997933        -3.76337
0.276                  0.9997586       -3.821606
0.28                   0.9997215       -3.879775
0.284                  0.9996823        -3.93787
0.288                  0.9996409       -3.995885
0.292                  0.9995975       -4.053815
0.296                  0.9995522       -4.111654
0.3                    0.9995055       -4.169396
0.304                   0.999457       -4.227037
0.308                  0.9994071       -4.284573
0.312                   0.999356       -4.342001
0.316                  0.9993037       -4.399318
0.32                   0.9992504        -4.45652
0.324                  0.9991966       -4.513605
0.328                   0.999142       -4.570572
0.332                   0.999087        -4.62742
0.336                  0.9990316       -4.684149
0.34                   0.9989761       -4.740757
0.344                  0.9989206       -4.797247
0.348                  0.9988655       -4.853618
0.352                  0.9988106       -4.909871
0.356                  0.9987564       -4.966011
0.36                    0.998703       -5.022039
0.364                  0.9986503        -5.07796
0.368                  0.9985987       -5.133774
0.372                  0.9985484       -5.189489
0.376                  0.9984993       -5.245108
0.38                    0.998452       -5.300636
0.384                  0.9984061       -5.356081
0.388                  0.9983622       -5.411447
0.392                  0.9983202       -5.466742
0.396                  0.9982802       -5.521972
0.4                    0.9982425       -5.577146
0.404                  0.9982071       -5.632272
0.408                  0.9981742       -5.687357
0.412                  0.9981438       -5.742412
0.416                   0.998116       -5.797444
0.42                   0.9980909       -5.852463
0.424                  0.9980686       -5.907479
0.428                  0.9980493       -5.962502
0.432                  0.9980328       -6.017542
0.436                  0.9980194       -6.072611
0.44                    0.998009       -6.127717
0.444                  0.9980017       -6.182871
0.448                  0.9979976       -6.238085
0.452                  0.9979964       -6.293371
0.456                  0.9979984       -6.348738
0.46                   0.9980035       -6.404197
0.464                  0.9980117       -6.459761
0.468                   0.998023       -6.515438
0.472                  0.9980372       -6.571242
0.476                  0.9980546       -6.627181
0.48                   0.9980749       -6.683267
0.484                   0.998098       -6.739511
0.488                   0.998124       -6.795921
0.492                  0.9981526       -6.852511
0.496                   0.998184       -6.909287
0.5                    0.9982178        -6.96626
0.504                  0.9982541        -7.02344
0.508                  0.9982927       -7.080835
0.512                  0.9983335       -7.138452
0.516                  0.9983763       -7.196302
0.52                    0.998421       -7.254391
0.524                  0.9984675       -7.312728
0.528                  0.9985158       -7.371315
0.532                  0.9985655       -7.430164
0.536                  0.9986165       -7.489279
0.54                   0.9986685       -7.548665
0.544                  0.9987216       -7.608327
0.548                  0.9987756       -7.668269
0.552                  0.9988301       -7.728495
0.556                  0.9988851       -7.789008
0.56                   0.9989404       -7.849811
0.564                  0.9989957       -7.910905
0.568                  0.9990509       -7.972294
0.572                  0.9991059       -8.033977
0.576                  0.9991603       -8.095954
0.58                   0.9992143       -8.158225
0.584                  0.9992673       -8.220793
0.588                  0.9993192        -8.28365
0.592                  0.9993701       -8.346799
0.596                  0.9994195       -8.410235
0.6                    0.9994674       -8.473956
0.604                  0.9995135       -8.537961
0.608                  0.9995577       -8.602241
0.612                  0.9996001       -8.666794
0.616                  0.9996402       -8.731616
0.62                   0.9996779       -8.796698
0.624                  0.9997131       -8.862037
0.628                  0.9997457       -8.927626
0.632                  0.9997756       -8.993458
0.636                  0.9998026       -9.059527
0.64                   0.9998267       -9.125821
0.644                  0.9998476       -9.192335
0.648                  0.9998654       -9.259063
0.652                  0.9998799       -9.325993
0.656                  0.9998911       -9.393119
0.66                   0.9998989       -9.460427
0.664                  0.9999033       -9.527915
0.668                   0.999904       -9.595567
0.672                  0.9999013       -9.663377
0.676                   0.999895       -9.731334
0.68                   0.9998852        -9.79943
0.684                  0.9998716       -9.867653
0.688                  0.9998546       -9.935994
0.692                   0.999834       -10.00444
0.696                  0.9998098       -10.07299
0.7                     0.999782       -10.14163
0.704                  0.9997509       -10.21035
0.708                  0.9997163       -10.27914
0.712                  0.9996784       -10.34799
0.716                  0.9996373       -10.41689
0.72                   0.9995929       -10.48584
0.724                  0.9995455       -10.55482
0.728                  0.9994952       -10.62383
0.732                   0.999442       -10.69286
0.736                  0.9993861       -10.76191
0.74                   0.9993275       -10.83096
0.744                  0.9992664           -10.9
0.748                  0.9992032       -10.96905
0.752                  0.9991378       -11.03808
0.756                  0.9990703       -11.10709
0.76                   0.9990011       -11.17608
0.764                  0.9989302       -11.24505
0.768                  0.9988577       -11.31399
0.772                  0.9987841       -11.38289
0.776                  0.9987094       -11.45177
0.78                   0.9986337        -11.5206
0.784                  0.9985573       -11.58941
0.788                  0.9984805       -11.65817
0.792                  0.9984033        -11.7269
0.796                   0.998326       -11.79559
0.8                    0.9982487       -11.86426
0.804                  0.9981719       -11.93289
0.808                  0.9980954       -12.00149
0.812                  0.9980197       -12.07007
0.816                  0.9979448       -12.13863
0.82                    0.997871       -12.20718
0.824                  0.9977985       -12.27571
0.828                  0.9977273       -12.34425
0.832                  0.9976579       -12.41278
0.836                  0.9975903       -12.48133
0.84                   0.9975247       -12.54991
0.844                  0.9974612        -12.6185
0.848                     0.9974       -12.68714
0.852                  0.9973412       -12.75582
0.856                  0.9972851       -12.82456
0.86                   0.9972317       -12.89337
0.864                  0.9971811       -12.96226
0.868                  0.9971336       -13.03125
0.872                  0.9970892       -13.10034
0.876                  0.9970479       -13.16954
0.88                   0.9970098       -13.23887
0.884                  0.9969752       -13.30835
0.888                  0.9969439       -13.37798
0.892                  0.9969162       -13.44779
0.896                  0.9968919       -13.51777
0.9                    0.9968711       -13.58796
0.904                   0.996854       -13.65836
0.908                  0.9968404       -13.72899
0.912                  0.9968304       -13.79986
0.916                   0.996824       -13.87098
0.92                   0.9968209       -13.94238
0.924                  0.9968215       -14.01406
0.928                  0.9968254       -14.08604
0.932                  0.9968327       -14.15834
0.936                  0.9968432       -14.23096
0.94                    0.996857       -14.30393
0.944                  0.9968739       -14.37725
0.948                  0.9968937       -14.45095
0.952                  0.9969163       -14.52503
0.956                  0.9969417        -14.5995
0.96                   0.9969695       -14.67438
0.964                      0.997       -14.74968
0.968                  0.9970325       -14.82541
0.972                  0.9970672       -14.90158
0.976                  0.9971037       -14.97821
0.98                    0.997142        -15.0553
0.984                  0.9971817       -15.13287
0.988                  0.9972227       -15.21091
0.992                  0.9972648       -15.28945
0.996                  0.9973077       -15.36848
1                      0.9973513       -15.44802
1.004                  0.9973954       -15.52806
1.008                  0.9974394       -15.60863
1.012                  0.9974836       -15.68971
1.016                  0.9975274       -15.77133
1.02                   0.9975706       -15.85347
1.024                   0.997613       -15.93615
1.028                  0.9976544       -16.01935
1.032                  0.9976945       -16.10309
1.036                  0.9977331       -16.18737
1.04                   0.9977699       -16.27223
1.044                  0.9978046       -16.35755
1.048                  0.9978371       -16.44345
1.052                  0.9978672       -16.52987
1.056                  0.9978945       -16.61683
1.06                   0.9979188       -16.70431
1.064                    0.99794       -16.79231
1.068                  0.9979579       -16.88083
1.072                  0.9979722       -16.96984
1.076                  0.9979827        -17.0594
1.08                   0.9979892       -17.14942
1.084                  0.9979916       -17.23996
1.088                  0.9979896       -17.33097
1.092                  0.9979831       -17.42246
1.096                  0.9979721        -17.5144
1.1                    0.9979563       -17.60682
1.104                  0.9979355       -17.69969
1.108                  0.9979097       -17.79301
1.112                  0.9978788       -17.88672
1.116                  0.9978426        -17.9809
1.12                   0.9978012       -18.07543
1.124                  0.9977544       -18.17042
1.128                  0.9977022       -18.26576
1.132                  0.9976443       -18.36148
1.136                  0.9975811       -18.45757
1.14                   0.9975124       -18.55401
1.144                  0.9974381       -18.65079
1.148                  0.9973583       -18.74791
1.152                  0.9972732       -18.84534
1.156                  0.9971825       -18.94309
1.16                   0.9970865       -19.04113
1.164                  0.9969852       -19.13946
1.168                  0.9968787       -19.23807
1.172                  0.9967671       -19.33695
1.176                  0.9966504       -19.43608
1.18                   0.9965289       -19.53547
1.184                  0.9964026        -19.6351
1.188                  0.9962719       -19.73495
1.192                  0.9961365       -19.83504
1.196                  0.9959969       -19.93534
1.2                    0.9958532       -20.03585
1.204                  0.9957056       -20.13657
1.208                  0.9955543       -20.23749
1.212                  0.9953994       -20.33861
1.216                  0.9952414       -20.43992
1.22                   0.9950803       -20.54142
1.224                  0.9949164       -20.64311
1.228                  0.9947499       -20.74498
1.232                  0.9945811       -20.84704
1.236                  0.9944101       -20.94929
1.24                   0.9942375       -21.05173
1.244                  0.9940631       -21.15436
1.248                  0.9938875       -21.25719
1.252                  0.9937109       -21.36021
1.256                  0.9935333       -21.46343
1.26                   0.9933554       -21.56687
1.264                   0.993177       -21.67053
1.268                  0.9929989        -21.7744
1.272                  0.9928208       -21.87852
1.276                  0.9926433       -21.98288
1.28                   0.9924665       -22.08749
1.284                  0.9922907       -22.19238
1.288                  0.9921161       -22.29754
1.292                   0.991943         -22.403
1.296                  0.9917715       -22.50877
1.3                    0.9916019       -22.61487
1.304                  0.9914345       -22.72131
1.308                  0.9912693       -22.82811
1.312                  0.9911065       -22.93528
1.316                  0.9909463       -23.04286
1.32                    0.990789       -23.15085
1.324                  0.9906346       -23.25928
1.328                  0.9904832       -23.36816
1.332                  0.9903349       -23.47753
1.336                  0.9901899       -23.58741
1.34                   0.9900483        -23.6978
1.344                  0.9899099       -23.80875
1.348                  0.9897751       -23.92027
1.352                  0.9896437       -24.03239
1.356                  0.9895159       -24.14513
1.36                   0.9893916       -24.25852
1.364                  0.9892706       -24.37259
1.368                  0.9891531       -24.48735
1.372                  0.9890391       -24.60284
1.376                  0.9889282       -24.71908
1.38                   0.9888207        -24.8361
1.384                   0.988716       -24.95392
1.388                  0.9886143       -25.07256
1.392                  0.9885155       -25.19206
1.396                  0.9884194       -25.31244
1.4                    0.9883256       -25.43373
1.404                   0.988234       -25.55594
1.408                  0.9881444       -25.67911
1.412                  0.9880566       -25.80326
1.416                  0.9879703       -25.92841
1.42                   0.9878852       -26.05458
1.424                  0.9878011        -26.1818
1.428                  0.9877176       -26.31009
1.432                  0.9876344       -26.43948
1.436                  0.9875511       -26.56998
1.44                   0.9874674        -26.7016
1.444                  0.9873832       -26.83438
1.448                  0.9872976       -26.96833
1.452                  0.9872106       -27.10347
1.456                  0.9871219       -27.23981
1.46                   0.9870307       -27.37737
1.464                   0.986937       -27.51617
1.468                  0.9868401       -27.65621
1.472                  0.9867396       -27.79753
1.476                  0.9866352       -27.94011
1.48                   0.9865264       -28.08398
1.484                  0.9864129       -28.22914
1.488                  0.9862939       -28.37562
1.492                  0.9861694        -28.5234
1.496                  0.9860386        -28.6725
1.5                    0.9859013       -28.82294
1.504                  0.9857572        -28.9747
1.508                  0.9856053        -29.1278
1.512                  0.9854458       -29.28224
1.516                  0.9852778       -29.43802
1.52                   0.9851012       -29.59514
1.524                  0.9849154       -29.75361
1.528                  0.9847201       -29.91342
1.532                   0.984515       -30.07457
1.536                  0.9842994       -30.23706
1.54                   0.9840733       -30.40088
1.544                   0.983836       -30.56605
1.548                  0.9835874       -30.73254
1.552                  0.9833271       -30.90035
1.556                  0.9830549       -31.06948
1.56                   0.9827702       -31.23993
1.564                   0.982473       -31.41168
1.568                  0.9821628       -31.58473
1.572                  0.9818395       -31.75907
1.576                  0.9815029        -31.9347
1.58                   0.9811526        -32.1116
1.584                  0.9807885       -32.28977
1.588                  0.9804104        -32.4692
1.592                  0.9800182       -32.64988
1.596                  0.9796118        -32.8318
1.6                     0.979191       -33.01496
1.604                  0.9787556       -33.19934
1.608                  0.9783056       -33.38495
1.612                   0.977841       -33.57177
1.616                  0.9773617       -33.75978
1.62                   0.9768676       -33.94899
1.624                  0.9763589        -34.1394
1.628                  0.9758354         -34.331
1.632                  0.9752973       -34.52376
1.636                  0.9747447       -34.71771
1.64                   0.9741773       -34.91283
1.644                  0.9735956       -35.10912
1.648                  0.9729995       -35.30658
1.652                  0.9723892        -35.5052
1.656                  0.9717648         -35.705
1.66                   0.9711265       -35.90596
1.664                  0.9704744        -36.1081
1.668                  0.9698087       -36.31141
1.672                  0.9691296       -36.51592
1.676                  0.9684374        -36.7216
1.68                   0.9677322       -36.92849
1.684                  0.9670141       -37.13659
1.688                  0.9662837        -37.3459
1.692                  0.9655408       -37.55646
1.696                  0.9647858       -37.76826
1.7                     0.964019       -37.98134
1.704                  0.9632407       -38.19569
1.708                  0.9624511       -38.41136
1.712                  0.9616502       -38.62835
1.716                  0.9608386        -38.8467
1.72                   0.9600164       -39.06643
1.724                  0.9591837       -39.28758
1.728                  0.9583409       -39.51016
1.732                  0.9574882       -39.73422
1.736                  0.9566257       -39.95978
1.74                   0.9557537       -40.18689
1.744                  0.9548723       -40.41558
1.748                  0.9539817       -40.64589
1.752                  0.9530819       -40.87788
1.756                  0.9521734       -41.11158
1.76                   0.9512558       -41.34704
1.764                  0.9503295       -41.58431
1.768                  0.9493945       -41.82344
1.772                   0.948451       -42.06448
1.776                  0.9474987       -42.30748
1.78                   0.9465377       -42.55252
1.784                   0.945568       -42.79964
1.788                  0.9445894        -43.0489
1.792                  0.9436021       -43.30037
1.796                  0.9426056       -43.55411
1.8                    0.9415998       -43.81018
1.804                  0.9405844       -44.06866
1.808                  0.9395595       -44.32962
1.812                  0.9385246        -44.5931
1.816                  0.9374792        -44.8592
1.82                   0.9364231       -45.12799
1.824                  0.9353559       -45.39954
1.828                   0.934277       -45.67392
1.832                  0.9331862       -45.95121
1.836                  0.9320825       -46.23149
1.84                   0.9309658       -46.51482
1.844                  0.9298351       -46.80131
1.848                    0.92869         -47.091
1.852                  0.9275296       -47.38401
1.856                  0.9263532       -47.68038
1.86                     0.92516       -47.98023
1.864                  0.9239492       -48.28361
1.868                  0.9227199       -48.59061
1.872                  0.9214711       -48.90132
1.876                  0.9202019       -49.21581
1.88                   0.9189113       -49.53415
1.884                  0.9175982       -49.85644
1.888                  0.9162615       -50.18276
1.892                     0.9149       -50.51319
1.896                  0.9135127       -50.84779
1.9                    0.9120984       -51.18665
1.904                  0.9106555       -51.52986
1.908                  0.9091832       -51.87748
1.912                  0.9076798       -52.22961
1.916                  0.9061442       -52.58629
1.92                   0.9045748       -52.94762
1.924                  0.9029705       -53.31367
1.928                  0.9013296       -53.68452
1.932                  0.8996508       -54.06023
1.936                  0.8979326       -54.44089
1.94                   0.8961734       -54.82655
1.944                  0.8943717       -55.21728
1.948                  0.8925261       -55.61316
1.952                   0.890635       -56.01425
1.956                  0.8886967       -56.42062
1.96                   0.8867095       -56.83234
1.964                  0.8846723       -57.24946
1.968                  0.8825832       -57.67205
1.972                  0.8804406       -58.10017
1.976                  0.8782428       -58.53388
1.98                   0.8759883       -58.97325
1.984                  0.8736755       -59.41833
1.988                   0.871303       -59.86917
1.992                  0.8688688       -60.32583
1.996                  0.8663716       -60.78838
2                      0.8638099       -61.25686
2.004                   0.861182       -61.73131
2.008                  0.8584862       -62.21183
2.012                  0.8557215       -62.69841
2.016                  0.8528857       -63.19117
2.02                   0.8499779        -63.6901
2.024                  0.8469964       -64.19529
2.028                  0.8439398       -64.70678
2.032                  0.8408068       -65.22461
2.036                  0.8375959       -65.74885
2.04                   0.8343058       -66.27953
2.044                  0.8309353       -66.81672
2.048                  0.8274832       -67.36046
2.052                   0.823948        -67.9108
2.056                  0.8203288       -68.46781
2.06                   0.8166245       -69.03153
2.064                   0.812834       -69.60199
2.068                  0.8089561       -70.17929
2.072                  0.8049899       -70.76344
2.076                  0.8009346       -71.35454
2.08                   0.7967893       -71.95264
2.084                  0.7925532       -72.55778
2.088                  0.7882256       -73.17004
2.092                  0.7838055       -73.78947
2.096                  0.7792926       -74.41616
2.1                    0.7746863       -75.05015
2.104                  0.7699861       -75.69156
2.108                  0.7651915       -76.34043
2.112                  0.7603021       -76.99684
2.116                  0.7553178       -77.66089
2.12                   0.7502382       -78.33265
2.124                  0.7450633       -79.01223
2.128                  0.7397929       -79.69971
2.132                  0.7344272       -80.39521
2.136                   0.728966       -81.09883
2.14                   0.7234099       -81.81068
2.144                  0.7177586       -82.53088
2.148                   0.712013       -83.25955
2.152                  0.7061731       -83.99686
2.156                  0.7002396        -84.7429
2.16                    0.694213       -85.49786
2.164                   0.688094       -86.26186
2.168                  0.6818835        -87.0351
2.172                  0.6755821       -87.81776
2.176                  0.6691909       -88.60999
2.18                    0.662711       -89.41205
2.184                  0.6561435       -90.22409
2.188                  0.6494896       -91.04638
2.192                  0.6427506       -91.87911
2.196                   0.635928       -92.72259
2.2                    0.6290233       -93.57706
2.204                  0.6220383        -94.4428
2.208                  0.6149745       -95.32011
2.212                   0.607834       -96.20934
2.216                  0.6006186       -97.11079
2.22                   0.5933306       -98.02486
2.224                   0.585972       -98.95192
2.228                  0.5785453       -99.89237
2.232                  0.5710528       -100.8467
2.236                  0.5634971       -101.8153
2.24                   0.5558811       -102.7987
2.244                  0.5482076       -103.7974
2.248                  0.5404794        -104.812
2.252                  0.5326999        -105.843
2.256                  0.5248723       -106.8912
2.26                   0.5169999       -107.9571
2.264                  0.5090866       -109.0415
2.268                   0.501136       -110.1452
2.272                  0.4931522       -111.2689
2.276                  0.4851393       -112.4136
2.28                   0.4771017       -113.5801
2.284                   0.469044       -114.7694
2.288                   0.460971       -115.9825
2.292                  0.4528877       -117.2206
2.296                  0.4447993       -118.4848
2.3                    0.4367116       -119.7764
2.304                  0.4286301       -121.0967
2.308                  0.4205613        -122.447
2.312                  0.4125114       -123.8289
2.316                  0.4044873        -125.244
2.32                    0.396496       -126.6938
2.324                  0.3885451       -128.1801
2.328                  0.3806426       -129.7049
2.332                  0.3727966       -131.2699
2.336                  0.3650162       -132.8773
2.34                   0.3573106        -134.529
2.344                  0.3496895       -136.2274
2.348                  0.3421633       -137.9747
2.352                  0.3347428       -139.7732