! TOUCHSTONE file generated by CST MICROWAVE STUDIO
! Date and time: Thu May 12 18:27:56 2022
! Project name: AppElm_antenne_dipole_FR4.cst
! Parameters = {L=38.8; e=0.035; f=2.45e+09; h=1.6; i=0.8; l1=4; lambda=122.449; ls=28.5; wl=1.7; ws=80}
! Header version: 2018
! Port assignment regex: !\s*Touchstone port\s*([0-9]+)\s*=\s*(CST MWS port|CST DS port)\s*([0-9]+|Zmin|Zmax)\s*\(\"(.*)\"\)(\s*mode\s*([0-9]+))?.*
! Touchstone port assignment:
! Touchstone port 1 = CST MWS port 1 ("")
# GHz S MA R 50
0                      0.9999188              -0
0.004                  0.9999186     -0.05506756
0.008                  0.9999177      -0.1101344
0.012                  0.9999164      -0.1651999
0.016                  0.9999145      -0.2202633
0.02                   0.9999119       -0.275324
0.024                  0.9999089      -0.3303812
0.028                  0.9999053      -0.3854344
0.032                  0.9999012      -0.4404827
0.036                  0.9998966      -0.4955257
0.04                   0.9998913      -0.5505626
0.044                  0.9998856      -0.6055929
0.048                  0.9998795      -0.6606159
0.052                  0.9998728      -0.7156309
0.056                  0.9998656      -0.7706378
0.06                   0.9998579      -0.8256354
0.064                  0.9998498      -0.8806237
0.068                  0.9998412       -0.935602
0.072                  0.9998321      -0.9905699
0.076                  0.9998227       -1.045527
0.08                    0.999813       -1.100472
0.084                  0.9998027       -1.155406
0.088                  0.9997921       -1.210328
0.092                  0.9997812       -1.265237
0.096                  0.9997699       -1.320134
0.1                    0.9997583       -1.375018
0.104                  0.9997464       -1.429889
0.108                  0.9997342       -1.484747
0.112                  0.9997219       -1.539591
0.116                  0.9997092       -1.594422
0.12                   0.9996963       -1.649239
0.124                  0.9996832       -1.704043
0.128                  0.9996699       -1.758834
0.132                  0.9996566       -1.813612
0.136                  0.9996431       -1.868376
0.14                   0.9996295       -1.923128
0.144                  0.9996159       -1.977867
0.148                  0.9996021       -2.032595
0.152                  0.9995885        -2.08731
0.156                  0.9995748       -2.142015
0.16                   0.9995611       -2.196708
0.164                  0.9995475       -2.251392
0.168                   0.999534       -2.306067
0.172                  0.9995206       -2.360732
0.176                  0.9995073        -2.41539
0.18                   0.9994942       -2.470041
0.184                  0.9994813       -2.524687
0.188                  0.9994687       -2.579327
0.192                  0.9994563       -2.633963
0.196                  0.9994441       -2.688597
0.2                    0.9994322       -2.743229
0.204                  0.9994209       -2.797861
0.208                  0.9994096       -2.852495
0.212                  0.9993989       -2.907131
0.216                  0.9993886       -2.961771
0.22                   0.9993785       -3.016418
0.224                  0.9993692       -3.071071
0.228                  0.9993602       -3.125734
0.232                  0.9993517       -3.180409
0.236                  0.9993437       -3.235096
0.24                   0.9993363       -3.289797
0.244                  0.9993294       -3.344517
0.248                  0.9993233       -3.399254
0.252                  0.9993176       -3.454013
0.256                  0.9993126       -3.508796
0.26                   0.9993082       -3.563604
0.264                  0.9993045        -3.61844
0.268                  0.9993015       -3.673306
0.272                  0.9992991       -3.728205
0.276                  0.9992974       -3.783139
0.28                   0.9992965       -3.838111
0.284                  0.9992962       -3.893124
0.288                  0.9992967        -3.94818
0.292                  0.9992979       -4.003282
0.296                  0.9992998       -4.058431
0.3                    0.9993025       -4.113632
0.304                   0.999306       -4.168886
0.308                  0.9993101       -4.224198
0.312                   0.999315       -4.279568
0.316                  0.9993207       -4.335001
0.32                    0.999327       -4.390499
0.324                  0.9993341       -4.446064
0.328                  0.9993419         -4.5017
0.332                  0.9993505       -4.557409
0.336                  0.9993597       -4.613195
0.34                   0.9993695        -4.66906
0.344                    0.99938       -4.725007
0.348                  0.9993912       -4.781037
0.352                   0.999403       -4.837155
0.356                  0.9994153       -4.893364
0.36                   0.9994282       -4.949666
0.364                  0.9994418       -5.006062
0.368                  0.9994558       -5.062556
0.372                  0.9994703        -5.11915
0.376                  0.9994853       -5.175847
0.38                   0.9995008       -5.232649
0.384                  0.9995167       -5.289558
0.388                  0.9995328       -5.346576
0.392                  0.9995495       -5.403706
0.396                  0.9995663       -5.460951
0.4                    0.9995834       -5.518311
0.404                  0.9996007       -5.575788
0.408                  0.9996182       -5.633385
0.412                  0.9996358       -5.691103
0.416                  0.9996535       -5.748944
0.42                   0.9996713       -5.806908
0.424                  0.9996891       -5.864999
0.428                  0.9997069       -5.923215
0.432                  0.9997245        -5.98156
0.436                   0.999742       -6.040034
0.44                   0.9997592       -6.098637
0.444                  0.9997764        -6.15737
0.448                  0.9997931       -6.216235
0.452                  0.9998097       -6.275231
0.456                  0.9998257       -6.334359
0.46                   0.9998415       -6.393619
0.464                  0.9998567       -6.453012
0.468                  0.9998713       -6.512537
0.472                  0.9998854       -6.572194
0.476                   0.999899       -6.631982
0.48                   0.9999118       -6.691901
0.484                  0.9999239       -6.751952
0.488                  0.9999354       -6.812132
0.492                   0.999946       -6.872442
0.496                  0.9999557        -6.93288
0.5                    0.9999646       -6.993446
0.504                  0.9999726       -7.054138
0.508                  0.9999797       -7.114954
0.512                  0.9999857       -7.175895
0.516                  0.9999907       -7.236955
0.52                   0.9999947       -7.298138
0.524                  0.9999975       -7.359438
0.528                  0.9999993       -7.420855
0.532                  0.9999999       -7.482387
0.536                  0.9999995       -7.544032
0.54                   0.9999978       -7.605789
0.544                  0.9999948       -7.667653
0.548                  0.9999908       -7.729624
0.552                  0.9999854       -7.791699
0.556                  0.9999787       -7.853876
0.56                    0.999971       -7.916152
0.564                  0.9999618       -7.978529
0.568                  0.9999516       -8.040998
0.572                  0.9999398       -8.103561
0.576                   0.999927       -8.166211
0.58                    0.999913       -8.228952
0.584                  0.9998976       -8.291777
0.588                   0.999881       -8.354686
0.592                  0.9998633       -8.417673
0.596                  0.9998444       -8.480742
0.6                    0.9998242       -8.543885
0.604                  0.9998029       -8.607103
0.608                  0.9997805       -8.670391
0.612                  0.9997571        -8.73375
0.616                  0.9997326       -8.797176
0.62                   0.9997071       -8.860668
0.624                  0.9996806       -8.924224
0.628                   0.999653       -8.987844
0.632                  0.9996248       -9.051521
0.636                  0.9995956        -9.11526
0.64                   0.9995657       -9.179058
0.644                  0.9995351        -9.24291
0.648                  0.9995037       -9.306819
0.652                  0.9994716       -9.370784
0.656                  0.9994391       -9.434802
0.66                   0.9994061       -9.498874
0.664                  0.9993725       -9.563001
0.668                  0.9993387        -9.62718
0.672                  0.9993045       -9.691411
0.676                  0.9992701       -9.755699
0.68                   0.9992354        -9.82004
0.684                  0.9992008       -9.884434
0.688                   0.999166       -9.948887
0.692                  0.9991313        -10.0134
0.696                  0.9990967       -10.07796
0.7                    0.9990622       -10.14259
0.704                  0.9990281       -10.20728
0.708                  0.9989942       -10.27203
0.712                  0.9989608       -10.33685
0.716                  0.9989278       -10.40173
0.72                   0.9988953       -10.46669
0.724                  0.9988634       -10.53172
0.728                  0.9988323       -10.59683
0.732                  0.9988018       -10.66202
0.736                  0.9987721        -10.7273
0.74                   0.9987434       -10.79266
0.744                  0.9987156       -10.85811
0.748                  0.9986887       -10.92366
0.752                  0.9986628       -10.98932
0.756                  0.9986381       -11.05508
0.76                   0.9986145       -11.12095
0.764                  0.9985922       -11.18693
0.768                   0.998571       -11.25304
0.772                  0.9985512       -11.31927
0.776                  0.9985326       -11.38564
0.78                   0.9985155       -11.45214
0.784                  0.9984998       -11.51879
0.788                  0.9984855       -11.58559
0.792                  0.9984726       -11.65254
0.796                  0.9984612       -11.71966
0.8                    0.9984513       -11.78695
0.804                  0.9984428       -11.85441
0.808                  0.9984359       -11.92205
0.812                  0.9984305       -11.98989
0.816                  0.9984266       -12.05792
0.82                   0.9984242       -12.12615
0.824                  0.9984232        -12.1946
0.828                  0.9984238       -12.26326
0.832                  0.9984257       -12.33214
0.836                  0.9984291       -12.40125
0.84                    0.998434        -12.4706
0.844                  0.9984402        -12.5402
0.848                  0.9984475       -12.61004
0.852                  0.9984562       -12.68014
0.856                  0.9984662       -12.75051
0.86                   0.9984773       -12.82114
0.864                  0.9984894       -12.89206
0.868                  0.9985028       -12.96326
0.872                  0.9985169       -13.03474
0.876                  0.9985321       -13.10652
0.88                    0.998548        -13.1786
0.884                  0.9985647       -13.25099
0.888                  0.9985819       -13.32369
0.892                  0.9985999       -13.39671
0.896                  0.9986182       -13.47005
0.9                    0.9986369       -13.54371
0.904                   0.998656       -13.61771
0.908                  0.9986752       -13.69205
0.912                  0.9986944       -13.76673
0.916                  0.9987137       -13.84175
0.92                   0.9987329       -13.91711
0.924                  0.9987516       -13.99283
0.928                  0.9987701        -14.0689
0.932                  0.9987881       -14.14533
0.936                  0.9988055       -14.22212
0.94                   0.9988221       -14.29927
0.944                   0.998838       -14.37678
0.948                  0.9988529       -14.45465
0.952                  0.9988669       -14.53289
0.956                  0.9988795        -14.6115
0.96                   0.9988908       -14.69048
0.964                  0.9989008       -14.76982
0.968                  0.9989092       -14.84952
0.972                   0.998916        -14.9296
0.976                   0.998921       -15.01004
0.98                   0.9989241       -15.09085
0.984                  0.9989253       -15.17202
0.988                  0.9989245       -15.25355
0.992                  0.9989213       -15.33544
0.996                   0.998916       -15.41769
1                      0.9989083       -15.50029
1.004                  0.9988982       -15.58325
1.008                  0.9988854       -15.66656
1.012                  0.9988701       -15.75022
1.016                  0.9988519       -15.83422
1.02                   0.9988311       -15.91856
1.024                  0.9988073       -16.00323
1.028                  0.9987807       -16.08823
1.032                  0.9987512       -16.17358
1.036                  0.9987186       -16.25923
1.04                   0.9986829       -16.34521
1.044                   0.998644       -16.43148
1.048                  0.9986021       -16.51809
1.052                   0.998557       -16.60503
1.056                  0.9985086       -16.69223
1.06                   0.9984571       -16.77972
1.064                  0.9984024       -16.86753
1.068                  0.9983444       -16.95561
1.072                  0.9982833       -17.04399
1.076                   0.998219       -17.13259
1.08                   0.9981514       -17.22152
1.084                  0.9980807        -17.3107
1.088                   0.998007       -17.40014
1.092                  0.9979301       -17.48984
1.096                  0.9978502        -17.5798
1.1                    0.9977674       -17.67002
1.104                  0.9976817       -17.76045
1.108                  0.9975931       -17.85113
1.112                  0.9975016       -17.94208
1.116                  0.9974077       -18.03325
1.12                   0.9973109       -18.12463
1.124                  0.9972117       -18.21627
1.128                  0.9971101       -18.30813
1.132                  0.9970063       -18.40021
1.136                  0.9969002       -18.49252
1.14                   0.9967921       -18.58505
1.144                  0.9966819        -18.6778
1.148                    0.99657       -18.77077
1.152                  0.9964562       -18.86396
1.156                  0.9963411       -18.95738
1.16                   0.9962243       -19.05102
1.164                  0.9961063       -19.14488
1.168                  0.9959871       -19.23897
1.172                  0.9958669       -19.33329
1.176                  0.9957457       -19.42784
1.18                    0.995624       -19.52262
1.184                  0.9955014       -19.61764
1.188                  0.9953786       -19.71291
1.192                  0.9952554       -19.80842
1.196                  0.9951321       -19.90418
1.2                    0.9950086       -20.00021
1.204                  0.9948854        -20.0965
1.208                  0.9947625       -20.19306
1.212                    0.99464       -20.28991
1.216                  0.9945181       -20.38704
1.22                   0.9943968       -20.48448
1.224                  0.9942764       -20.58222
1.228                   0.994157       -20.68027
1.232                  0.9940385       -20.77866
1.236                  0.9939214       -20.87738
1.24                   0.9938055       -20.97645
1.244                   0.993691       -21.07589
1.248                  0.9935781        -21.1757
1.252                  0.9934668        -21.2759
1.256                  0.9933572       -21.37649
1.26                   0.9932493       -21.47751
1.264                  0.9931434       -21.57895
1.268                  0.9930393       -21.68084
1.272                  0.9929372       -21.78318
1.276                  0.9928373         -21.886
1.28                   0.9927392       -21.98931
1.284                  0.9926432       -22.09312
1.288                  0.9925494       -22.19746
1.292                  0.9924576       -22.30234
1.296                  0.9923681       -22.40777
1.3                    0.9922805       -22.51378
1.304                  0.9921951       -22.62037
1.308                  0.9921116       -22.72757
1.312                  0.9920301        -22.8354
1.316                  0.9919505       -22.94388
1.32                    0.991873         -23.053
1.324                   0.991797       -23.16282
1.328                  0.9917227       -23.27332
1.332                  0.9916501       -23.38454
1.336                  0.9915789       -23.49649
1.34                    0.991509        -23.6092
1.344                  0.9914403       -23.72267
1.348                  0.9913727       -23.83692
1.352                  0.9913061       -23.95197
1.356                    0.99124       -24.06784
1.36                   0.9911746       -24.18454
1.364                  0.9911095       -24.30209
1.368                  0.9910445       -24.42051
1.372                  0.9909795       -24.53981
1.376                  0.9909142       -24.66001
1.38                   0.9908484       -24.78113
1.384                   0.990782       -24.90317
1.388                  0.9907144       -25.02615
1.392                  0.9906456       -25.15008
1.396                  0.9905753       -25.27499
1.4                    0.9905033       -25.40087
1.404                  0.9904293       -25.52774
1.408                  0.9903529       -25.65563
1.412                  0.9902739       -25.78452
1.416                  0.9901919       -25.91444
1.42                   0.9901068        -26.0454
1.424                  0.9900182        -26.1774
1.428                  0.9899258       -26.31045
1.432                  0.9898293       -26.44457
1.436                  0.9897286       -26.57975
1.44                   0.9896229       -26.71601
1.444                  0.9895123       -26.85336
1.448                  0.9893965       -26.99178
1.452                  0.9892749       -27.13131
1.456                  0.9891474       -27.27193
1.46                   0.9890138       -27.41364
1.464                  0.9888736       -27.55647
1.468                  0.9887264        -27.7004
1.472                  0.9885723       -27.84543
1.476                  0.9884108       -27.99158
1.48                   0.9882415       -28.13883
1.484                  0.9880642        -28.2872
1.488                  0.9878788       -28.43667
1.492                  0.9876848       -28.58726
1.496                   0.987482       -28.73895
1.5                    0.9872704       -28.89175
1.504                  0.9870494       -29.04566
1.508                  0.9868191       -29.20066
1.512                   0.986579       -29.35676
1.516                   0.986329       -29.51396
1.52                    0.986069       -29.67225
1.524                  0.9857987       -29.83164
1.528                  0.9855179        -29.9921
1.532                  0.9852266       -30.15364
1.536                  0.9849245       -30.31627
1.54                   0.9846114       -30.47996
1.544                  0.9842874       -30.64472
1.548                  0.9839521       -30.81055
1.552                  0.9836059       -30.97743
1.556                  0.9832482       -31.14537
1.56                   0.9828792       -31.31436
1.564                  0.9824986       -31.48439
1.568                  0.9821067       -31.65547
1.572                  0.9817033       -31.82758
1.576                  0.9812882       -32.00074
1.58                   0.9808618       -32.17493
1.584                  0.9804237       -32.35015
1.588                  0.9799743       -32.52639
1.592                  0.9795135       -32.70367
1.596                   0.979041       -32.88198
1.6                    0.9785575       -33.06131
1.604                  0.9780626       -33.24167
1.608                  0.9775564       -33.42306
1.612                  0.9770393       -33.60548
1.616                  0.9765112       -33.78894
1.62                   0.9759723       -33.97344
1.624                  0.9754226       -34.15898
1.628                  0.9748625       -34.34557
1.632                  0.9742919       -34.53322
1.636                  0.9737111       -34.72194
1.64                   0.9731201       -34.91173
1.644                  0.9725192        -35.1026
1.648                  0.9719086       -35.29457
1.652                  0.9712884       -35.48765
1.656                  0.9706588       -35.68186
1.66                   0.9700199       -35.87721
1.664                  0.9693722       -36.07371
1.668                  0.9687153       -36.27139
1.672                  0.9680501       -36.47026
1.676                  0.9673762       -36.67036
1.68                   0.9666942       -36.87169
1.684                   0.966004       -37.07429
1.688                  0.9653058       -37.27817
1.692                  0.9645999       -37.48338
1.696                  0.9638864       -37.68992
1.7                    0.9631654       -37.89786
1.704                  0.9624371       -38.10719
1.708                  0.9617016       -38.31797
1.712                  0.9609591       -38.53022
1.716                  0.9602094       -38.74401
1.72                    0.959453       -38.95934
1.724                  0.9586898       -39.17627
1.728                  0.9579198       -39.39483
1.732                  0.9571431       -39.61508
1.736                  0.9563597       -39.83705
1.74                   0.9555696        -40.0608
1.744                  0.9547727       -40.28637
1.748                  0.9539693       -40.51381
1.752                  0.9531588       -40.74317
1.756                  0.9523414        -40.9745
1.76                    0.951517       -41.20786
1.764                  0.9506853       -41.44332
1.768                  0.9498463        -41.6809
1.772                  0.9489998       -41.92069
1.776                  0.9481452       -42.16272
1.78                   0.9472827       -42.40708
1.784                  0.9464118       -42.65382
1.788                  0.9455321       -42.90299
1.792                  0.9446434       -43.15467
1.796                  0.9437451       -43.40892
1.8                     0.942837        -43.6658
1.804                  0.9419184       -43.92537
1.808                  0.9409889       -44.18772
1.812                  0.9400479        -44.4529
1.816                   0.939095       -44.72097
1.82                   0.9381295       -44.99201
1.824                  0.9371507       -45.26609
1.828                  0.9361579       -45.54327
1.832                  0.9351504       -45.82364
1.836                  0.9341278       -46.10723
1.84                   0.9330887       -46.39415
1.844                  0.9320325       -46.68446
1.848                  0.9309585       -46.97821
1.852                  0.9298658       -47.27549
1.856                  0.9287531       -47.57637
1.86                   0.9276199       -47.88091
1.864                   0.926465       -48.18918
1.868                  0.9252873       -48.50126
1.872                  0.9240858        -48.8172
1.876                  0.9228594       -49.13708
1.88                    0.921607       -49.46097
1.884                  0.9203274       -49.78894
1.888                  0.9190194       -50.12104
1.892                  0.9176818       -50.45736
1.896                  0.9163135       -50.79794
1.9                     0.914913       -51.14287
1.904                   0.913479       -51.49219
1.908                  0.9120106       -51.84597
1.912                  0.9105059       -52.20428
1.916                  0.9089639       -52.56718
1.92                   0.9073831       -52.93474
1.924                  0.9057623       -53.30699
1.928                  0.9040998       -53.68401
1.932                  0.9023942       -54.06587
1.936                  0.9006445       -54.45259
1.94                   0.8988487       -54.84427
1.944                  0.8970057       -55.24093
1.948                  0.8951139       -55.64265
1.952                  0.8931719       -56.04947
1.956                  0.8911783       -56.46142
1.96                   0.8891316        -56.8786
1.964                  0.8870301       -57.30103
1.968                  0.8848725       -57.72877
1.972                  0.8826575       -58.16187
1.976                  0.8803832       -58.60037
1.98                   0.8780488       -59.04431
1.984                  0.8756523       -59.49377
1.988                  0.8731924       -59.94877
1.992                  0.8706679       -60.40936
1.996                  0.8680772       -60.87558
2                       0.865419        -61.3475
2.004                  0.8626918       -61.82513
2.008                  0.8598944       -62.30855
2.012                  0.8570254       -62.79778
2.016                  0.8540836       -63.29286
2.02                   0.8510678       -63.79384
2.024                  0.8479764       -64.30079
2.028                  0.8448085       -64.81372
2.032                  0.8415628       -65.33268
2.036                  0.8382382       -65.85774
2.04                   0.8348336       -66.38893
2.044                  0.8313478       -66.92627
2.048                  0.8277799       -67.46986
2.052                  0.8241289        -68.0197
2.056                  0.8203937       -68.57586
2.06                   0.8165736       -69.13838
2.064                  0.8126675       -69.70733
2.068                  0.8086748       -70.28274
2.072                  0.8045946       -70.86467
2.076                  0.8004261       -71.45319
2.08                   0.7961688       -72.04834
2.084                  0.7918219       -72.65019
2.088                  0.7873852       -73.25879
2.092                  0.7828576       -73.87421
2.096                  0.7782393       -74.49654
2.1                    0.7735294       -75.12582
2.104                  0.7687277       -75.76213
2.108                  0.7638341       -76.40557
2.112                  0.7588483       -77.05617
2.116                  0.7537701       -77.71407
2.12                   0.7485994       -78.37933
2.124                  0.7433363       -79.05203
2.128                  0.7379807        -79.7323
2.132                  0.7325329       -80.42024
2.136                   0.726993       -81.11594
2.14                   0.7213612       -81.81953
2.144                   0.715638       -82.53113
2.148                  0.7098235       -83.25086
2.152                  0.7039187       -83.97885
2.156                  0.6979237       -84.71526
2.16                   0.6918392       -85.46024
2.164                  0.6856662       -86.21396
2.168                  0.6794051       -86.97654
2.172                  0.6730572       -87.74821
2.176                  0.6666232       -88.52918
2.18                   0.6601043       -89.31957
2.184                  0.6535016       -90.11966
2.188                  0.6468162       -90.92965
2.192                  0.6400494       -91.74979
2.196                  0.6332029       -92.58033
2.2                    0.6262779       -93.42153
2.204                  0.6192762        -94.2737
2.208                  0.6121994       -95.13711
2.212                  0.6050493       -96.01212
2.216                  0.5978278       -96.89906
2.22                    0.590537       -97.79826
2.224                  0.5831789       -98.71014
2.228                  0.5757558       -99.63509
2.232                    0.56827       -100.5736
2.236                   0.560724        -101.526
2.24                   0.5531202        -102.493
2.244                  0.5454617       -103.4749
2.248                  0.5377511       -104.4724
2.252                  0.5299915        -105.486
2.256                  0.5221858       -106.5163
2.26                   0.5143375       -107.5642
2.264                  0.5064501       -108.6301
2.268                  0.4985269        -109.715
2.272                   0.490572       -110.8196
2.276                  0.4825892       -111.9447
2.28                   0.4745827       -113.0913
2.284                  0.4665568       -114.2604
2.288                   0.458516        -115.453
2.292                  0.4504653       -116.6701
2.296                  0.4424097        -117.913
2.3                    0.4343543       -119.1828
2.304                  0.4263048        -120.481
2.308                   0.418267       -121.8089
2.312                  0.4102471       -123.1679
2.316                  0.4022515       -124.5597
2.32                   0.3942871       -125.9859
2.324                  0.3863612       -127.4483
2.328                  0.3784812       -128.9487
2.332                  0.3706553        -130.489
2.336                  0.3628919       -132.0714
2.34                   0.3551998       -133.6978
2.344                  0.3475888       -135.3706
2.348                  0.3400688       -137.0921
2.352                  0.3326501       -138.8645