! TOUCHSTONE file generated by CST MICROWAVE STUDIO
! Date and time: Thu May 12 18:28:00 2022
! Project name: AppElm_antenne_dipole_FR4.cst
! Parameters = {L=38.8; e=0.035; f=2.45e+09; h=1.6; i=0.8; l1=4; lambda=122.449; ls=34.5; wl=1.7; ws=80}
! Header version: 2018
! Port assignment regex: !\s*Touchstone port\s*([0-9]+)\s*=\s*(CST MWS port|CST DS port)\s*([0-9]+|Zmin|Zmax)\s*\(\"(.*)\"\)(\s*mode\s*([0-9]+))?.*
! Touchstone port assignment:
! Touchstone port 1 = CST MWS port 1 ("")
# GHz S MA R 50
0                       0.999913              -0
0.004                  0.9999128     -0.05502592
0.008                   0.999912      -0.1100513
0.012                  0.9999107      -0.1650757
0.016                   0.999909      -0.2200984
0.02                   0.9999067       -0.275119
0.024                  0.9999039       -0.330137
0.028                  0.9999006      -0.3851518
0.032                  0.9998969       -0.440163
0.036                  0.9998927        -0.49517
0.04                    0.999888      -0.5501724
0.044                  0.9998829      -0.6051696
0.048                  0.9998771      -0.6601613
0.052                  0.9998711      -0.7151468
0.056                  0.9998646      -0.7701259
0.06                   0.9998575      -0.8250982
0.064                  0.9998502      -0.8800629
0.068                  0.9998423      -0.9350202
0.072                  0.9998342       -0.989969
0.076                  0.9998254        -1.04491
0.08                   0.9998166       -1.099842
0.084                  0.9998073       -1.154764
0.088                  0.9997975       -1.209678
0.092                  0.9997875       -1.264582
0.096                  0.9997771       -1.319476
0.1                    0.9997665        -1.37436
0.104                  0.9997555       -1.429234
0.108                  0.9997443       -1.484098
0.112                   0.999733       -1.538951
0.116                  0.9997213       -1.593794
0.12                   0.9997094       -1.648627
0.124                  0.9996973       -1.703449
0.128                   0.999685       -1.758261
0.132                  0.9996727       -1.813062
0.136                    0.99966       -1.867854
0.14                   0.9996474       -1.922636
0.144                  0.9996346       -1.977408
0.148                  0.9996218       -2.032172
0.152                   0.999609       -2.086925
0.156                  0.9995961       -2.141671
0.16                   0.9995833       -2.196409
0.164                  0.9995706       -2.251139
0.168                  0.9995578       -2.305863
0.172                  0.9995451        -2.36058
0.176                  0.9995326       -2.415292
0.18                   0.9995202       -2.469999
0.184                  0.9995079       -2.524702
0.188                  0.9994959       -2.579402
0.192                   0.999484         -2.6341
0.196                  0.9994724       -2.688797
0.2                    0.9994609       -2.743495
0.204                  0.9994499       -2.798193
0.208                  0.9994391       -2.852894
0.212                  0.9994286       -2.907599
0.216                  0.9994185       -2.962308
0.22                   0.9994088       -3.017025
0.224                  0.9993995        -3.07175
0.228                  0.9993907       -3.126484
0.232                  0.9993823        -3.18123
0.236                  0.9993744       -3.235989
0.24                   0.9993669       -3.290762
0.244                  0.9993599       -3.345553
0.248                  0.9993535       -3.400363
0.252                  0.9993476       -3.455192
0.256                  0.9993424       -3.510044
0.26                   0.9993377       -3.564922
0.264                  0.9993336       -3.619826
0.268                  0.9993301        -3.67476
0.272                  0.9993273       -3.729725
0.276                  0.9993251       -3.784724
0.28                   0.9993236       -3.839759
0.284                  0.9993228       -3.894833
0.288                  0.9993227       -3.949948
0.292                  0.9993233       -4.005106
0.296                  0.9993244       -4.060312
0.3                    0.9993263       -4.115565
0.304                   0.999329        -4.17087
0.308                  0.9993323       -4.226229
0.312                  0.9993363       -4.281646
0.316                  0.9993411       -4.337122
0.32                   0.9993465        -4.39266
0.324                  0.9993527       -4.448263
0.328                  0.9993595       -4.503934
0.332                  0.9993671       -4.559675
0.336                  0.9993753        -4.61549
0.34                   0.9993841       -4.671381
0.344                  0.9993937       -4.727351
0.348                  0.9994038       -4.783402
0.352                  0.9994145       -4.839537
0.356                  0.9994259       -4.895759
0.36                   0.9994378       -4.952071
0.364                  0.9994503       -5.008475
0.368                  0.9994634       -5.064973
0.372                  0.9994771       -5.121568
0.376                  0.9994911       -5.178264
0.38                   0.9995055       -5.235062
0.384                  0.9995204       -5.291963
0.388                  0.9995358       -5.348972
0.392                  0.9995513        -5.40609
0.396                  0.9995674       -5.463319
0.4                    0.9995836       -5.520661
0.404                  0.9996001       -5.578118
0.408                  0.9996169       -5.635691
0.412                  0.9996338       -5.693384
0.416                  0.9996509       -5.751198
0.42                    0.999668       -5.809133
0.424                  0.9996853       -5.867191
0.428                  0.9997024       -5.925375
0.432                  0.9997196       -5.983686
0.436                  0.9997366       -6.042123
0.44                   0.9997536       -6.100688
0.444                  0.9997701       -6.159384
0.448                  0.9997867       -6.218208
0.452                   0.999803       -6.277164
0.456                  0.9998188       -6.336252
0.46                   0.9998345        -6.39547
0.464                  0.9998495       -6.454821
0.468                  0.9998642       -6.514302
0.472                  0.9998783       -6.573918
0.476                   0.999892       -6.633664
0.48                    0.999905       -6.693542
0.484                  0.9999173        -6.75355
0.488                  0.9999289       -6.813691
0.492                  0.9999397       -6.873961
0.496                  0.9999499       -6.934361
0.5                    0.9999593       -6.994888
0.504                  0.9999676       -7.055544
0.508                  0.9999753       -7.116326
0.512                  0.9999818       -7.177232
0.516                  0.9999875       -7.238262
0.52                   0.9999921       -7.299414
0.524                  0.9999957       -7.360688
0.528                  0.9999982       -7.422081
0.532                  0.9999997       -7.483591
0.536                          1       -7.545215
0.54                   0.9999992       -7.606954
0.544                  0.9999971       -7.668803
0.548                  0.9999941       -7.730762
0.552                  0.9999897       -7.792829
0.556                   0.999984          -7.855
0.56                   0.9999771       -7.917274
0.564                   0.999969        -7.97965
0.568                  0.9999598       -8.042122
0.572                  0.9999492       -8.104692
0.576                  0.9999374       -8.167353
0.58                   0.9999244       -8.230107
0.584                  0.9999102       -8.292949
0.588                  0.9998948       -8.355876
0.592                  0.9998781        -8.41889
0.596                  0.9998603       -8.481984
0.6                    0.9998411       -8.545158
0.604                  0.9998209        -8.60841
0.608                  0.9997994       -8.671736
0.612                  0.9997771       -8.735136
0.616                  0.9997536       -8.798605
0.62                   0.9997291       -8.862145
0.624                  0.9997036        -8.92575
0.628                  0.9996772       -8.989423
0.632                  0.9996497       -9.053158
0.636                  0.9996215       -9.116955
0.64                   0.9995924       -9.180816
0.644                  0.9995625       -9.244734
0.648                  0.9995319       -9.308711
0.652                  0.9995008       -9.372742
0.656                  0.9994689       -9.436833
0.66                   0.9994364        -9.50098
0.664                  0.9994036       -9.565183
0.668                  0.9993702       -9.629441
0.672                  0.9993365       -9.693753
0.676                  0.9993025       -9.758122
0.68                   0.9992683       -9.822545
0.684                  0.9992339       -9.887026
0.688                  0.9991994       -9.951563
0.692                   0.999165       -10.01616
0.696                  0.9991304       -10.08081
0.7                    0.9990961       -10.14552
0.704                   0.999062        -10.2103
0.708                  0.9990281       -10.27514
0.712                  0.9989945       -10.34005
0.716                  0.9989614       -10.40502
0.72                   0.9989286       -10.47007
0.724                  0.9988966       -10.53519
0.728                  0.9988651       -10.60038
0.732                  0.9988341       -10.66566
0.736                  0.9988041       -10.73102
0.74                   0.9987749       -10.79646
0.744                  0.9987464         -10.862
0.748                  0.9987189       -10.92763
0.752                  0.9986925       -10.99336
0.756                   0.998667        -11.0592
0.76                   0.9986427       -11.12514
0.764                  0.9986194        -11.1912
0.768                  0.9985975       -11.25737
0.772                  0.9985768       -11.32368
0.776                  0.9985574       -11.39011
0.78                   0.9985392       -11.45667
0.784                  0.9985225       -11.52338
0.788                  0.9985072       -11.59023
0.792                  0.9984932       -11.65724
0.796                  0.9984808       -11.72441
0.8                    0.9984698       -11.79174
0.804                  0.9984601       -11.85925
0.808                  0.9984521       -11.92694
0.812                  0.9984456       -11.99481
0.816                  0.9984405       -12.06287
0.82                   0.9984369       -12.13113
0.824                  0.9984348        -12.1996
0.828                  0.9984342       -12.26829
0.832                   0.998435       -12.33719
0.836                  0.9984372       -12.40632
0.84                    0.998441       -12.47568
0.844                   0.998446       -12.54528
0.848                  0.9984523       -12.61513
0.852                  0.9984599       -12.68524
0.856                  0.9984688        -12.7556
0.86                   0.9984789       -12.82624
0.864                  0.9984902       -12.89714
0.868                  0.9985025       -12.96833
0.872                  0.9985157        -13.0398
0.876                    0.99853       -13.11157
0.88                   0.9985452       -13.18363
0.884                   0.998561         -13.256
0.888                  0.9985776       -13.32867
0.892                  0.9985948       -13.40167
0.896                  0.9986125       -13.47498
0.9                    0.9986306       -13.54862
0.904                  0.9986492       -13.62259
0.908                   0.998668       -13.69689
0.912                  0.9986869       -13.77153
0.916                  0.9987057       -13.84652
0.92                   0.9987247       -13.92185
0.924                  0.9987432       -13.99753
0.928                  0.9987616       -14.07357
0.932                  0.9987795       -14.14996
0.936                  0.9987969       -14.22671
0.94                   0.9988137       -14.30382
0.944                  0.9988298        -14.3813
0.948                  0.9988449       -14.45914
0.952                   0.998859       -14.53735
0.956                   0.998872       -14.61592
0.96                   0.9988839       -14.69486
0.964                  0.9988942       -14.77417
0.968                  0.9989032       -14.85385
0.972                  0.9989105        -14.9339
0.976                  0.9989163       -15.01431
0.98                   0.9989202        -15.0951
0.984                  0.9989222       -15.17625
0.988                  0.9989222       -15.25776
0.992                    0.99892       -15.33964
0.996                  0.9989156       -15.42187
1                       0.998909       -15.50447
1.004                  0.9988999       -15.58742
1.008                  0.9988883       -15.67073
1.012                  0.9988741       -15.75439
1.016                  0.9988572       -15.83839
1.02                   0.9988376       -15.92274
1.024                  0.9988152       -16.00743
1.028                    0.99879       -16.09246
1.032                  0.9987617       -16.17784
1.036                  0.9987303       -16.26349
1.04                   0.9986961       -16.34952
1.044                  0.9986588       -16.43583
1.048                  0.9986181       -16.52249
1.052                  0.9985745       -16.60942
1.056                  0.9985276       -16.69669
1.06                   0.9984774       -16.78425
1.064                  0.9984242       -16.87211
1.068                  0.9983677       -16.96028
1.072                   0.998308       -17.04869
1.076                   0.998245        -17.1374
1.08                   0.9981789       -17.22641
1.084                  0.9981095       -17.31567
1.088                   0.998037        -17.4052
1.092                  0.9979615         -17.495
1.096                  0.9978828       -17.58502
1.1                    0.9978012       -17.67534
1.104                  0.9977166       -17.76591
1.108                  0.9976291        -17.8567
1.112                  0.9975389       -17.94776
1.116                  0.9974458       -18.03904
1.12                   0.9973501       -18.13056
1.124                  0.9972518       -18.22233
1.128                  0.9971511        -18.3143
1.132                  0.9970479       -18.40651
1.136                  0.9969426       -18.49896
1.14                   0.9968351       -18.59163
1.144                  0.9967255       -18.68452
1.148                  0.9966141       -18.77764
1.152                  0.9965008       -18.87098
1.156                  0.9963858       -18.96455
1.16                   0.9962694       -19.05834
1.164                  0.9961515       -19.15236
1.168                  0.9960323        -19.2466
1.172                   0.995912       -19.34107
1.176                  0.9957908       -19.43578
1.18                   0.9956688       -19.53072
1.184                  0.9955461        -19.6259
1.188                  0.9954228       -19.72133
1.192                  0.9952992         -19.817
1.196                  0.9951753       -19.91292
1.2                    0.9950514       -20.00911
1.204                  0.9949273       -20.10556
1.208                  0.9948036       -20.20228
1.212                  0.9946802       -20.29928
1.216                  0.9945573       -20.39657
1.22                    0.994435       -20.49415
1.224                  0.9943135       -20.59204
1.228                  0.9941928       -20.69024
1.232                  0.9940731       -20.78878
1.236                  0.9939546       -20.88765
1.24                   0.9938374       -20.98686
1.244                  0.9937214       -21.08643
1.248                  0.9936069       -21.18637
1.252                   0.993494        -21.2867
1.256                  0.9933827       -21.38743
1.26                   0.9932732       -21.48857
1.264                  0.9931654       -21.59013
1.268                  0.9930595       -21.69213
1.272                  0.9929556       -21.79459
1.276                  0.9928536       -21.89752
1.28                   0.9927537       -22.00093
1.284                  0.9926558       -22.10485
1.288                    0.99256       -22.20928
1.292                  0.9924664       -22.31425
1.296                  0.9923748       -22.41977
1.3                    0.9922852       -22.52586
1.304                  0.9921977       -22.63253
1.308                  0.9921121       -22.73981
1.312                  0.9920287       -22.84771
1.316                  0.9919471       -22.95624
1.32                   0.9918675       -23.06544
1.324                  0.9917896        -23.1753
1.328                  0.9917134       -23.28586
1.332                  0.9916388       -23.39713
1.336                  0.9915657       -23.50913
1.34                    0.991494       -23.62187
1.344                  0.9914236       -23.73537
1.348                  0.9913542       -23.84965
1.352                  0.9912857       -23.96473
1.356                   0.991218       -24.08063
1.36                    0.991151       -24.19735
1.364                  0.9910844       -24.31493
1.368                   0.991018       -24.43336
1.372                  0.9909516       -24.55268
1.376                  0.9908849        -24.6729
1.38                   0.9908178       -24.79402
1.384                    0.99075       -24.91607
1.388                  0.9906814       -25.03906
1.392                  0.9906116         -25.163
1.396                  0.9905404       -25.28791
1.4                    0.9904674        -25.4138
1.404                  0.9903927       -25.54068
1.408                  0.9903154       -25.66857
1.412                  0.9902359       -25.79747
1.416                  0.9901534        -25.9274
1.42                   0.9900679       -26.05836
1.424                  0.9899789       -26.19037
1.428                  0.9898862       -26.32344
1.432                  0.9897895       -26.45757
1.436                  0.9896886       -26.59277
1.44                   0.9895828       -26.72905
1.444                  0.9894723       -26.86641
1.448                  0.9893566       -27.00486
1.452                  0.9892352       -27.14441
1.456                   0.989108       -27.28506
1.46                   0.9889747       -27.42681
1.464                  0.9888348       -27.56968
1.468                  0.9886883       -27.71365
1.472                  0.9885347       -27.85874
1.476                  0.9883738       -28.00494
1.48                   0.9882051       -28.15225
1.484                  0.9880286       -28.30068
1.488                  0.9878438       -28.45023
1.492                  0.9876507        -28.6009
1.496                  0.9874487       -28.75267
1.5                    0.9872379       -28.90556
1.504                  0.9870178       -29.05956
1.508                  0.9867884       -29.21467
1.512                  0.9865492       -29.37088
1.516                  0.9863002        -29.5282
1.52                    0.986041       -29.68662
1.524                  0.9857717       -29.84613
1.528                  0.9854919       -30.00674
1.532                  0.9852014       -30.16843
1.536                  0.9849001       -30.33121
1.54                    0.984588       -30.49507
1.544                  0.9842648          -30.66
1.548                  0.9839304       -30.82601
1.552                  0.9835847       -30.99308
1.556                  0.9832277       -31.16121
1.56                   0.9828593        -31.3304
1.564                  0.9824793       -31.50064
1.568                  0.9820879       -31.67194
1.572                  0.9816848       -31.84428
1.576                  0.9812701       -32.01767
1.58                   0.9808439       -32.19209
1.584                  0.9804059       -32.36755
1.588                  0.9799564       -32.54405
1.592                  0.9794954       -32.72158
1.596                  0.9790229       -32.90015
1.6                    0.9785389       -33.07975
1.604                  0.9780436       -33.26038
1.608                   0.977537       -33.44205
1.612                   0.977019       -33.62476
1.616                  0.9764901        -33.8085
1.62                   0.9759502        -33.9933
1.624                  0.9753993       -34.17913
1.628                  0.9748379       -34.36602
1.632                  0.9742659       -34.55398
1.636                  0.9736835         -34.743
1.64                   0.9730908       -34.93309
1.644                  0.9724878       -35.12428
1.648                  0.9718751       -35.31656
1.652                  0.9712526       -35.50995
1.656                  0.9706208       -35.70447
1.66                   0.9699792       -35.90013
1.664                  0.9693287       -36.09695
1.668                  0.9686691       -36.29494
1.672                  0.9680007       -36.49412
1.676                  0.9673237       -36.69452
1.68                   0.9666382       -36.89616
1.684                  0.9659443       -37.09906
1.688                  0.9652425       -37.30324
1.692                  0.9645327       -37.50874
1.696                  0.9638151       -37.71558
1.7                      0.96309       -37.92379
1.704                  0.9623572       -38.13342
1.708                  0.9616173       -38.34447
1.712                  0.9608701         -38.557
1.716                  0.9601158       -38.77105
1.72                   0.9593545       -38.98664
1.724                  0.9585863       -39.20382
1.728                  0.9578112       -39.42262
1.732                  0.9570293       -39.64311
1.736                  0.9562406        -39.8653
1.74                   0.9554452       -40.08927
1.744                  0.9546428       -40.31505
1.748                  0.9538337       -40.54268
1.752                  0.9530177       -40.77223
1.756                  0.9521947       -41.00375
1.76                   0.9513646       -41.23728
1.764                  0.9505272       -41.47289
1.768                  0.9496824       -41.71062
1.772                    0.94883       -41.95053
1.776                  0.9479698        -42.1927
1.78                   0.9471015       -42.43718
1.784                  0.9462248       -42.68402
1.788                  0.9453395       -42.93328
1.792                  0.9444449       -43.18504
1.796                   0.943541       -43.43936
1.8                    0.9426273        -43.6963
1.804                  0.9417032       -43.95592
1.808                  0.9407683        -44.2183
1.812                   0.939822        -44.4835
1.816                  0.9388638       -44.75159
1.82                   0.9378932       -45.02263
1.824                  0.9369093       -45.29671
1.828                  0.9359117       -45.57388
1.832                  0.9348996       -45.85421
1.836                  0.9338722       -46.13778
1.84                   0.9328288       -46.42465
1.844                  0.9317684       -46.71491
1.848                  0.9306904        -47.0086
1.852                  0.9295938       -47.30582
1.856                  0.9284777       -47.60662
1.86                    0.927341       -47.91107
1.864                   0.926183       -48.21926
1.868                  0.9250023       -48.53123
1.872                  0.9237982       -48.84709
1.876                  0.9225693       -49.16686
1.88                   0.9213148       -49.49064
1.884                  0.9200334       -49.81849
1.888                  0.9187238       -50.15049
1.892                  0.9173848       -50.48669
1.896                  0.9160154       -50.82716
1.9                    0.9146141       -51.17196
1.904                    0.91318       -51.52117
1.908                  0.9117112       -51.87484
1.912                  0.9102068       -52.23303
1.916                  0.9086653       -52.59582
1.92                   0.9070854       -52.96327
1.924                  0.9054657       -53.33543
1.928                  0.9038047       -53.71236
1.932                   0.902101       -54.09412
1.936                  0.9003532       -54.48078
1.94                   0.8985601       -54.87237
1.944                  0.8967199       -55.26897
1.948                  0.8948312       -55.67064
1.952                  0.8928927       -56.07741
1.956                  0.8909028       -56.48935
1.96                   0.8888602       -56.90649
1.964                  0.8867632       -57.32893
1.968                  0.8846104       -57.75669
1.972                  0.8824003        -58.1898
1.976                  0.8801318       -58.62834
1.98                   0.8778029       -59.07236
1.984                  0.8754125        -59.5219
1.988                  0.8729591       -59.97699
1.992                  0.8704412        -60.4377
1.996                  0.8678575       -60.90407
2                      0.8652065       -61.37615
2.004                  0.8624869       -61.85398
2.008                  0.8596974        -62.3376
2.012                  0.8568365       -62.82707
2.016                  0.8539031       -63.32242
2.02                   0.8508959       -63.82372
2.024                  0.8478134       -64.33098
2.028                  0.8446546       -64.84427
2.032                  0.8414184       -65.36362
2.036                  0.8381034        -65.8891
2.04                   0.8347086       -66.42073
2.044                  0.8312329       -66.95856
2.048                  0.8276753       -67.50266
2.052                  0.8240346       -68.05306
2.056                  0.8203102       -68.60981
2.06                   0.8165009       -69.17297
2.064                  0.8126059       -69.74258
2.068                  0.8086242       -70.31871
2.072                  0.8045553        -70.9014
2.076                  0.8003984       -71.49071
2.08                   0.7961525        -72.0867
2.084                  0.7918176       -72.68942
2.088                  0.7873925       -73.29898
2.092                  0.7828771       -73.91539
2.096                  0.7782706       -74.53874
2.1                     0.773573       -75.16908
2.104                  0.7687837       -75.80653
2.108                  0.7639023       -76.45114
2.112                  0.7589288       -77.10299
2.116                  0.7538631       -77.76218
2.12                   0.7487048        -78.4288
2.124                  0.7434542       -79.10292
2.128                  0.7381112       -79.78468
2.132                   0.732676       -80.47413
2.136                  0.7271487       -81.17143
2.14                   0.7215296       -81.87668
2.144                   0.715819          -82.59
2.148                  0.7100172       -83.31153
2.152                   0.704125       -84.04139
2.156                  0.6981427       -84.77975
2.16                    0.692071       -85.52674
2.164                  0.6859105       -86.28254
2.168                  0.6796623        -87.0473
2.172                   0.673327       -87.82122
2.176                  0.6669057        -88.6045
2.18                   0.6603994       -89.39732
2.184                  0.6538094        -90.1999
2.188                  0.6471366        -91.0125
2.192                  0.6403827       -91.83532
2.196                  0.6335488       -92.66863
2.2                    0.6266366       -93.51272
2.204                  0.6196476       -94.36787
2.208                  0.6125834       -95.23438
2.212                  0.6054462       -96.11257
2.216                  0.5982376       -97.00279
2.22                   0.5909596       -97.90542
2.224                  0.5836145       -98.82082
2.228                  0.5762045       -99.74945
2.232                  0.5687319       -100.6917
2.236                  0.5611991       -101.6481
2.24                   0.5536089        -102.619
2.244                  0.5459641       -103.6051
2.248                  0.5382672       -104.6069
2.252                  0.5305216        -105.625
2.256                  0.5227302       -106.6599
2.26                   0.5148964       -107.7125
2.264                  0.5070238       -108.7834
2.268                  0.4991158       -109.8733
2.272                  0.4911765       -110.9832
2.276                  0.4832096       -112.1137
2.28                   0.4752195       -113.2659
2.284                  0.4672106       -114.4407
2.288                  0.4591873       -115.6392
2.292                  0.4511546       -116.8625
2.296                  0.4431178       -118.1117
2.3                    0.4350818        -119.388
2.304                  0.4270525       -120.6929
2.308                  0.4190358       -122.0276
2.312                  0.4110379       -123.3937
2.316                  0.4030654       -124.7928
2.32                   0.3951249       -126.2264
2.324                  0.3872242       -127.6963
2.328                  0.3793706       -129.2044
2.332                  0.3715724       -130.7526
2.336                  0.3638381        -132.343
2.34                   0.3561767       -133.9776
2.344                  0.3485979       -135.6586
2.348                  0.3411117       -137.3884
2.352                  0.3337287       -139.1691