! TOUCHSTONE file generated by CST MICROWAVE STUDIO
! Date and time: Thu May 12 18:27:52 2022
! Project name: AppElm_antenne_dipole_FR4.cst
! Parameters = {L=38.8; e=0.035; f=2.45e+09; h=1.6; i=0.8; l1=4; lambda=122.449; ls=22.5; wl=1.7; ws=80}
! Header version: 2018
! Port assignment regex: !\s*Touchstone port\s*([0-9]+)\s*=\s*(CST MWS port|CST DS port)\s*([0-9]+|Zmin|Zmax)\s*\(\"(.*)\"\)(\s*mode\s*([0-9]+))?.*
! Touchstone port assignment:
! Touchstone port 1 = CST MWS port 1 ("")
# GHz S MA R 50
0                      0.9999124              -0
0.004                  0.9999121     -0.05498461
0.008                  0.9999113      -0.1099687
0.012                  0.9999102      -0.1649517
0.016                  0.9999084      -0.2199332
0.02                   0.9999061      -0.2749125
0.024                  0.9999034      -0.3298894
0.028                  0.9999001       -0.384863
0.032                  0.9998964      -0.4398331
0.036                  0.9998921      -0.4947991
0.04                   0.9998875      -0.5497604
0.044                  0.9998824      -0.6047168
0.048                  0.9998767      -0.6596677
0.052                  0.9998706      -0.7146125
0.056                  0.9998642      -0.7695509
0.06                   0.9998573      -0.8244825
0.064                    0.99985      -0.8794069
0.068                  0.9998421      -0.9343238
0.072                   0.999834      -0.9892324
0.076                  0.9998253       -1.044133
0.08                   0.9998165       -1.099025
0.084                  0.9998072       -1.153908
0.088                  0.9997975       -1.208782
0.092                  0.9997876       -1.263646
0.096                  0.9997772         -1.3185
0.1                    0.9997666       -1.373345
0.104                  0.9997558        -1.42818
0.108                  0.9997447       -1.483004
0.112                  0.9997333       -1.537819
0.116                  0.9997216       -1.592623
0.12                   0.9997098       -1.647417
0.124                  0.9996978         -1.7022
0.128                  0.9996855       -1.756974
0.132                  0.9996732       -1.811737
0.136                  0.9996607        -1.86649
0.14                   0.9996481       -1.921234
0.144                  0.9996354       -1.975968
0.148                  0.9996227       -2.030693
0.152                  0.9996099        -2.08541
0.156                  0.9995972       -2.140118
0.16                   0.9995843       -2.194817
0.164                  0.9995717        -2.24951
0.168                  0.9995589       -2.304196
0.172                  0.9995462       -2.358876
0.176                  0.9995338        -2.41355
0.18                   0.9995213        -2.46822
0.184                  0.9995091       -2.522886
0.188                  0.9994972       -2.577548
0.192                  0.9994853       -2.632209
0.196                  0.9994737       -2.686869
0.2                    0.9994623       -2.741529
0.204                  0.9994513       -2.796189
0.208                  0.9994406       -2.850853
0.212                  0.9994301       -2.905521
0.216                    0.99942       -2.960193
0.22                   0.9994103       -3.014873
0.224                  0.9994009        -3.06956
0.228                  0.9993922       -3.124256
0.232                  0.9993837       -3.178964
0.236                  0.9993758       -3.233686
0.24                   0.9993684       -3.288422
0.244                  0.9993614       -3.343174
0.248                   0.999355       -3.397946
0.252                  0.9993491       -3.452737
0.256                  0.9993438       -3.507552
0.26                   0.9993392       -3.562391
0.264                   0.999335       -3.617256
0.268                  0.9993316       -3.672151
0.272                  0.9993288       -3.727077
0.276                  0.9993266       -3.782037
0.28                    0.999325       -3.837033
0.284                  0.9993242       -3.892067
0.288                   0.999324       -3.947142
0.292                  0.9993244       -4.002261
0.296                  0.9993255       -4.057426
0.3                    0.9993275       -4.112639
0.304                  0.9993301       -4.167904
0.308                  0.9993334       -4.223222
0.312                  0.9993374       -4.278598
0.316                  0.9993422       -4.334032
0.32                   0.9993476       -4.389528
0.324                  0.9993537        -4.44509
0.328                  0.9993605       -4.500719
0.332                   0.999368       -4.556418
0.336                  0.9993761        -4.61219
0.34                    0.999385       -4.668037
0.344                  0.9993944       -4.723965
0.348                  0.9994045       -4.779972
0.352                  0.9994152       -4.836064
0.356                  0.9994266       -4.892241
0.36                   0.9994385       -4.948509
0.364                  0.9994509       -5.004868
0.368                   0.999464       -5.061322
0.372                  0.9994774       -5.117873
0.376                  0.9994915       -5.174523
0.38                    0.999506       -5.231275
0.384                  0.9995208        -5.28813
0.388                   0.999536       -5.345093
0.392                  0.9995517       -5.402165
0.396                  0.9995676       -5.459347
0.4                    0.9995839       -5.516641
0.404                  0.9996004       -5.574051
0.408                   0.999617       -5.631578
0.412                  0.9996339       -5.689224
0.416                   0.999651       -5.746988
0.42                   0.9996681       -5.804875
0.424                  0.9996853       -5.862886
0.428                  0.9997025       -5.921021
0.432                  0.9997197       -5.979282
0.436                  0.9997367        -6.03767
0.44                   0.9997533       -6.096188
0.444                  0.9997702       -6.154833
0.448                  0.9997866       -6.213608
0.452                  0.9998028       -6.272514
0.456                  0.9998189        -6.33155
0.46                   0.9998343       -6.390719
0.464                  0.9998494       -6.450019
0.468                  0.9998641        -6.50945
0.472                  0.9998781       -6.569014
0.476                  0.9998917        -6.62871
0.48                   0.9999048       -6.688536
0.484                  0.9999171       -6.748494
0.488                  0.9999287       -6.808582
0.492                  0.9999396       -6.868801
0.496                  0.9999498       -6.929148
0.5                     0.999959       -6.989624
0.504                  0.9999675       -7.050227
0.508                  0.9999752       -7.110956
0.512                  0.9999817        -7.17181
0.516                  0.9999873       -7.232787
0.52                    0.999992       -7.293887
0.524                  0.9999957       -7.355107
0.528                  0.9999982       -7.416446
0.532                  0.9999996       -7.477902
0.536                          1       -7.539472
0.54                   0.9999991       -7.601157
0.544                   0.999997       -7.662953
0.548                  0.9999939       -7.724857
0.552                  0.9999895       -7.786868
0.556                  0.9999838       -7.848987
0.56                   0.9999771       -7.911205
0.564                   0.999969       -7.973524
0.568                  0.9999598       -8.035941
0.572                  0.9999492       -8.098456
0.576                  0.9999374       -8.161061
0.58                   0.9999244       -8.223758
0.584                  0.9999101       -8.286544
0.588                  0.9998948       -8.349416
0.592                  0.9998781       -8.412371
0.596                  0.9998602        -8.47541
0.6                    0.9998411       -8.538525
0.604                  0.9998208       -8.601719
0.608                  0.9997995       -8.664987
0.612                  0.9997771       -8.728329
0.616                  0.9997536        -8.79174
0.62                   0.9997291       -8.855221
0.624                  0.9997036       -8.918768
0.628                  0.9996772       -8.982381
0.632                  0.9996497       -9.046056
0.636                  0.9996214       -9.109795
0.64                   0.9995923       -9.173592
0.644                  0.9995625       -9.237449
0.648                  0.9995318       -9.301364
0.652                  0.9995006       -9.365337
0.656                  0.9994687       -9.429366
0.66                   0.9994363       -9.493448
0.664                  0.9994034       -9.557589
0.668                    0.99937       -9.621783
0.672                  0.9993363       -9.686032
0.676                  0.9993023       -9.750336
0.68                    0.999268       -9.814695
0.684                  0.9992337       -9.879112
0.688                   0.999199       -9.943583
0.692                  0.9991645       -10.00811
0.696                    0.99913        -10.0727
0.7                    0.9990957       -10.13735
0.704                  0.9990615       -10.20206
0.708                  0.9990276       -10.26683
0.712                   0.998994       -10.33167
0.716                  0.9989608       -10.39657
0.72                   0.9989281       -10.46155
0.724                  0.9988958        -10.5266
0.728                  0.9988644       -10.59172
0.732                  0.9988335       -10.65693
0.736                  0.9988034       -10.72222
0.74                    0.998774       -10.78759
0.744                  0.9987455       -10.85305
0.748                  0.9987181       -10.91861
0.752                  0.9986916       -10.98427
0.756                  0.9986661       -11.05003
0.76                   0.9986418        -11.1159
0.764                  0.9986185       -11.18188
0.768                  0.9985964       -11.24799
0.772                  0.9985757       -11.31421
0.776                  0.9985562       -11.38056
0.78                   0.9985381       -11.44705
0.784                  0.9985212       -11.51368
0.788                  0.9985059       -11.58046
0.792                   0.998492       -11.64739
0.796                  0.9984794       -11.71448
0.8                    0.9984683       -11.78173
0.804                  0.9984588       -11.84916
0.808                  0.9984507       -11.91676
0.812                   0.998444       -11.98455
0.816                  0.9984389       -12.05253
0.82                   0.9984353       -12.12071
0.824                  0.9984333        -12.1891
0.828                  0.9984325       -12.25769
0.832                  0.9984333       -12.32651
0.836                  0.9984355       -12.39555
0.84                   0.9984392       -12.46483
0.844                  0.9984441       -12.53435
0.848                  0.9984504       -12.60411
0.852                   0.998458       -12.67413
0.856                  0.9984669        -12.7444
0.86                   0.9984769       -12.81495
0.864                  0.9984881       -12.88576
0.868                  0.9985004       -12.95686
0.872                  0.9985136       -13.02824
0.876                  0.9985278       -13.09991
0.88                   0.9985429       -13.17189
0.884                  0.9985586       -13.24416
0.888                  0.9985751       -13.31674
0.892                  0.9985922       -13.38964
0.896                    0.99861       -13.46286
0.9                     0.998628        -13.5364
0.904                  0.9986466       -13.61027
0.908                  0.9986652       -13.68448
0.912                  0.9986841       -13.75902
0.916                  0.9987028       -13.83391
0.92                   0.9987216       -13.90914
0.924                  0.9987401       -13.98472
0.928                  0.9987584       -14.06065
0.932                  0.9987763       -14.13694
0.936                  0.9987936       -14.21359
0.94                   0.9988102        -14.2906
0.944                  0.9988261       -14.36797
0.948                  0.9988412        -14.4457
0.952                  0.9988552        -14.5238
0.956                   0.998868       -14.60226
0.96                   0.9988797       -14.68109
0.964                  0.9988901       -14.76029
0.968                  0.9988988       -14.83986
0.972                  0.9989061       -14.91979
0.976                  0.9989116       -15.00009
0.98                   0.9989154       -15.08076
0.984                  0.9989172       -15.16179
0.988                  0.9989171       -15.24318
0.992                  0.9989148       -15.32494
0.996                  0.9989103       -15.40705
1                      0.9989035       -15.48953
1.004                  0.9988942       -15.57235
1.008                  0.9988824       -15.65554
1.012                   0.998868       -15.73906
1.016                  0.9988509       -15.82294
1.02                   0.9988312       -15.90715
1.024                  0.9988087       -15.99171
1.028                  0.9987831       -16.07659
1.032                  0.9987547       -16.16183
1.036                  0.9987233       -16.24737
1.04                   0.9986888       -16.33327
1.044                  0.9986512       -16.41944
1.048                  0.9986104       -16.50593
1.052                  0.9985664       -16.59273
1.056                  0.9985195       -16.67983
1.06                   0.9984691       -16.76726
1.064                  0.9984157       -16.85496
1.068                  0.9983591       -16.94296
1.072                  0.9982991       -17.03123
1.076                  0.9982359       -17.11978
1.08                   0.9981696       -17.20862
1.084                  0.9981002       -17.29774
1.088                  0.9980276       -17.38708
1.092                  0.9979518       -17.47672
1.096                  0.9978731       -17.56658
1.1                    0.9977912       -17.65674
1.104                  0.9977066       -17.74712
1.108                   0.997619       -17.83774
1.112                  0.9975285       -17.92864
1.116                  0.9974354       -18.01972
1.12                   0.9973397       -18.11106
1.124                  0.9972414       -18.20263
1.128                  0.9971405       -18.29442
1.132                  0.9970373       -18.38645
1.136                  0.9969319        -18.4787
1.14                   0.9968244       -18.57118
1.144                  0.9967148       -18.66387
1.148                  0.9966033       -18.75679
1.152                  0.9964902       -18.84993
1.156                  0.9963753       -18.94329
1.16                   0.9962588       -19.03687
1.164                  0.9961411       -19.13068
1.168                  0.9960221       -19.22472
1.172                  0.9959019       -19.31897
1.176                  0.9957809       -19.41346
1.18                   0.9956591       -19.50819
1.184                  0.9955365       -19.60314
1.188                  0.9954135       -19.69834
1.192                  0.9952902       -19.79379
1.196                  0.9951665       -19.88948
1.2                    0.9950428       -19.98544
1.204                  0.9949192       -20.08165
1.208                  0.9947959       -20.17813
1.212                  0.9946729        -20.2749
1.216                  0.9945505       -20.37194
1.22                   0.9944286       -20.46928
1.224                  0.9943075       -20.56693
1.228                  0.9941873       -20.66489
1.232                  0.9940682       -20.76317
1.236                  0.9939503       -20.86178
1.24                   0.9938336       -20.96074
1.244                  0.9937183       -21.06006
1.248                  0.9936045       -21.15974
1.252                  0.9934923       -21.25981
1.256                  0.9933817       -21.36028
1.26                    0.993273       -21.46115
1.264                   0.993166       -21.56244
1.268                   0.993061       -21.66418
1.272                  0.9929579       -21.76636
1.276                  0.9928569       -21.86902
1.28                   0.9927579       -21.97216
1.284                   0.992661       -22.07579
1.288                  0.9925662       -22.17995
1.292                  0.9924735       -22.28463
1.296                  0.9923829       -22.38987
1.3                    0.9922944       -22.49567
1.304                  0.9922081       -22.60206
1.308                  0.9921237       -22.70904
1.312                  0.9920415       -22.81665
1.316                  0.9919612       -22.92489
1.32                   0.9918828       -23.03379
1.324                  0.9918061       -23.14336
1.328                  0.9917313       -23.25362
1.332                  0.9916581       -23.36458
1.336                  0.9915863       -23.47628
1.34                    0.991516       -23.58871
1.344                   0.991447       -23.70191
1.348                  0.9913791       -23.81588
1.352                  0.9913121       -23.93065
1.356                   0.991246       -24.04623
1.36                   0.9911806       -24.16264
1.364                  0.9911153        -24.2799
1.368                  0.9910506       -24.39801
1.372                  0.9909857       -24.51701
1.376                  0.9909207       -24.63689
1.38                   0.9908553       -24.75769
1.384                  0.9907893       -24.87941
1.388                  0.9907225       -25.00206
1.392                  0.9906544       -25.12567
1.396                  0.9905849       -25.25024
1.4                    0.9905138       -25.37579
1.404                  0.9904407       -25.50232
1.408                  0.9903655       -25.62986
1.412                  0.9902877       -25.75841
1.416                  0.9902072       -25.88798
1.42                   0.9901235       -26.01859
1.424                  0.9900365       -26.15024
1.428                  0.9899457       -26.28294
1.432                   0.989851       -26.41671
1.436                  0.9897521       -26.55154
1.44                   0.9896484       -26.68744
1.444                  0.9895401       -26.82442
1.448                  0.9894263       -26.96249
1.452                  0.9893072       -27.10165
1.456                  0.9891821       -27.24191
1.46                   0.9890508       -27.38327
1.464                  0.9889132       -27.52574
1.468                   0.988769        -27.6693
1.472                  0.9886176       -27.81398
1.476                  0.9884589       -27.95977
1.48                   0.9882928       -28.10666
1.484                  0.9881185       -28.25467
1.488                  0.9879363       -28.40379
1.492                  0.9877456       -28.55401
1.496                  0.9875461       -28.70535
1.5                    0.9873379        -28.8578
1.504                  0.9871204       -29.01135
1.508                  0.9868935         -29.166
1.512                  0.9866571       -29.32175
1.516                  0.9864108       -29.47861
1.52                   0.9861544       -29.63655
1.524                  0.9858879       -29.79558
1.528                   0.985611        -29.9557
1.532                  0.9853234        -30.1169
1.536                  0.9850253       -30.27918
1.54                   0.9847162       -30.44253
1.544                  0.9843962       -30.60695
1.548                   0.984065       -30.77244
1.552                  0.9837229       -30.93898
1.556                  0.9833693       -31.10658
1.56                   0.9830043       -31.27523
1.564                  0.9826279       -31.44493
1.568                  0.9822401       -31.61567
1.572                  0.9818408       -31.78745
1.576                  0.9814299       -31.96027
1.58                   0.9810077       -32.13411
1.584                  0.9805737       -32.30899
1.588                  0.9801284       -32.48491
1.592                  0.9796717       -32.66184
1.596                  0.9792035       -32.83981
1.6                     0.978724        -33.0188
1.604                  0.9782332       -33.19881
1.608                  0.9777314       -33.37985
1.612                  0.9772184       -33.56193
1.616                  0.9766945       -33.74504
1.62                   0.9761597       -33.92918
1.624                  0.9756141       -34.11437
1.628                  0.9750582        -34.3006
1.632                  0.9744917       -34.48789
1.636                  0.9739149       -34.67623
1.64                   0.9733281       -34.86565
1.644                  0.9727313       -35.05615
1.648                  0.9721247       -35.24774
1.652                  0.9715087       -35.44044
1.656                  0.9708831       -35.63425
1.66                   0.9702486       -35.82919
1.664                  0.9696048        -36.0253
1.668                  0.9689522       -36.22256
1.672                   0.968291       -36.42102
1.676                  0.9676214       -36.62069
1.68                   0.9669435       -36.82158
1.684                  0.9662575       -37.02374
1.688                  0.9655636       -37.22717
1.692                   0.964862       -37.43192
1.696                  0.9641526       -37.63801
1.7                     0.963436       -37.84546
1.704                  0.9627121       -38.05431
1.708                  0.9619811        -38.2646
1.712                  0.9612431       -38.47636
1.716                   0.960498       -38.68963
1.72                   0.9597463       -38.90444
1.724                  0.9589878       -39.12083
1.728                  0.9582225       -39.33886
1.732                  0.9574508       -39.55855
1.736                  0.9566725       -39.77996
1.74                   0.9558875       -40.00314
1.744                  0.9550959       -40.22811
1.748                  0.9542976       -40.45497
1.752                  0.9534927       -40.68372
1.756                   0.952681       -40.91443
1.76                   0.9518622       -41.14717
1.764                  0.9510366       -41.38197
1.768                  0.9502036       -41.61892
1.772                  0.9493633       -41.85803
1.776                  0.9485152        -42.0994
1.78                   0.9476593       -42.34308
1.784                  0.9467951       -42.58912
1.788                  0.9459224       -42.83759
1.792                  0.9450409       -43.08854
1.796                  0.9441501       -43.34207
1.8                    0.9432495       -43.59821
1.804                  0.9423387       -43.85704
1.808                  0.9414172       -44.11863
1.812                  0.9404847       -44.38303
1.816                  0.9395402       -44.65033
1.82                   0.9385834       -44.92059
1.824                  0.9376136       -45.19387
1.828                  0.9366302       -45.47025
1.832                  0.9356323       -45.74979
1.836                  0.9346192       -46.03257
1.84                   0.9335903       -46.31867
1.844                  0.9325444       -46.60814
1.848                   0.931481       -46.90105
1.852                  0.9303992       -47.19748
1.856                  0.9292977        -47.4975
1.86                   0.9281759       -47.80117
1.864                  0.9270325       -48.10858
1.868                  0.9258669       -48.41977
1.872                  0.9246777       -48.73484
1.876                  0.9234638       -49.05384
1.88                   0.9222243       -49.37684
1.884                  0.9209579       -49.70391
1.888                  0.9196634       -50.03511
1.892                  0.9183393       -50.37052
1.896                  0.9169849        -50.7102
1.9                    0.9155988       -51.05421
1.904                  0.9141794       -51.40262
1.908                  0.9127256       -51.75549
1.912                  0.9112359        -52.1129
1.916                  0.9097093       -52.47487
1.92                   0.9081441       -52.84151
1.924                   0.906539       -53.21285
1.928                  0.9048926       -53.58895
1.932                  0.9032035       -53.96988
1.936                  0.9014701       -54.35569
1.94                   0.8996911       -54.74645
1.944                  0.8978651       -55.14218
1.948                  0.8959906       -55.54297
1.952                  0.8940658       -55.94887
1.956                  0.8920899       -56.35992
1.96                   0.8900608       -56.77617
1.964                  0.8879773       -57.19768
1.968                  0.8858377       -57.62451
1.972                   0.883641       -58.05668
1.976                  0.8813852       -58.49426
1.98                   0.8790692        -58.9373
1.984                  0.8766914       -59.38583
1.988                  0.8742502       -59.83992
1.992                  0.8717445       -60.29959
1.996                  0.8691729        -60.7649
2                      0.8665335        -61.2359
2.004                  0.8638255       -61.71263
2.008                  0.8610474       -62.19511
2.012                  0.8581975       -62.68343
2.016                  0.8552749       -63.17761
2.02                   0.8522781       -63.67767
2.024                  0.8492059        -64.1837
2.028                  0.8460572       -64.69571
2.032                  0.8428307       -65.21375
2.036                  0.8395251        -65.7379
2.04                   0.8361396       -66.26814
2.044                  0.8326728       -66.80456
2.048                  0.8291237       -67.34721
2.052                  0.8254914       -67.89611
2.056                  0.8217749       -68.45132
2.06                   0.8179732        -69.0129
2.064                  0.8140855       -69.58088
2.068                  0.8101109       -70.15533
2.072                  0.8060486       -70.73629
2.076                   0.801898       -71.32382
2.08                   0.7976584       -71.91797
2.084                  0.7933289       -72.51881
2.088                  0.7889092       -73.12639
2.092                  0.7843988        -73.7408
2.096                   0.779797       -74.36206
2.1                    0.7751034       -74.99027
2.104                  0.7703177        -75.6255
2.108                  0.7654399       -76.26784
2.112                  0.7604694       -76.91734
2.116                  0.7554064       -77.57407
2.12                   0.7502505       -78.23816
2.124                  0.7450016       -78.90969
2.128                  0.7396601       -79.58876
2.132                  0.7342258       -80.27544
2.136                   0.728699       -80.96987
2.14                   0.7230799       -81.67216
2.144                   0.717369        -82.3824
2.148                  0.7115664       -83.10076
2.152                  0.7056729       -83.82733
2.156                  0.6996887       -84.56229
2.16                   0.6936147       -85.30577
2.164                  0.6874514       -86.05793
2.168                  0.6811999       -86.81893
2.172                  0.6748607       -87.58896
2.176                  0.6684349       -88.36819
2.18                   0.6619236       -89.15683
2.184                  0.6553279       -89.95509
2.188                  0.6486489        -90.7632
2.192                  0.6418881       -91.58137
2.196                  0.6350466       -92.40987
2.2                    0.6281262       -93.24896
2.204                  0.6211283       -94.09893
2.208                  0.6140547       -94.96008
2.212                  0.6069071        -95.8327
2.216                  0.5996874       -96.71715
2.22                   0.5923975       -97.61379
2.224                  0.5850396       -98.52298
2.228                   0.577616       -99.44516
2.232                  0.5701287       -100.3807
2.236                  0.5625806       -101.3301
2.24                   0.5549739       -102.2939
2.244                  0.5473114       -103.2725
2.248                   0.539596       -104.2665
2.252                  0.5318307       -105.2764
2.256                  0.5240183        -106.303
2.26                   0.5161623       -107.3468
2.264                  0.5082661       -108.4086
2.268                  0.5003333       -109.4891
2.272                  0.4923675       -110.5892
2.276                  0.4843728       -111.7095
2.28                   0.4763532       -112.8511
2.284                  0.4683129       -114.0149
2.288                  0.4602566        -115.202
2.292                  0.4521891       -116.4133
2.296                  0.4441152       -117.6501
2.3                    0.4360402       -118.9137
2.304                  0.4279695       -120.2051
2.308                  0.4199092        -121.526
2.312                   0.411865       -122.8777
2.316                  0.4038436       -124.2618
2.32                   0.3958515       -125.6799
2.324                   0.387896       -127.1339
2.328                  0.3799846       -128.6254
2.332                  0.3721252       -130.1565
2.336                  0.3643262       -131.7291
2.34                   0.3565964       -133.3455
2.344                  0.3489452       -135.0077
2.348                  0.3413825       -136.7182
2.352                  0.3339187       -138.4793