! TOUCHSTONE file generated by CST MICROWAVE STUDIO
! Date and time: Thu May 12 18:27:53 2022
! Project name: AppElm_antenne_dipole_FR4.cst
! Parameters = {L=38.8; e=0.035; f=2.45e+09; h=1.6; i=0.8; l1=4; lambda=122.449; ls=24; wl=1.7; ws=80}
! Header version: 2018
! Port assignment regex: !\s*Touchstone port\s*([0-9]+)\s*=\s*(CST MWS port|CST DS port)\s*([0-9]+|Zmin|Zmax)\s*\(\"(.*)\"\)(\s*mode\s*([0-9]+))?.*
! Touchstone port assignment:
! Touchstone port 1 = CST MWS port 1 ("")
# GHz S MA R 50
0                      0.9999167              -0
0.004                  0.9999164     -0.05503842
0.008                  0.9999156      -0.1100762
0.012                  0.9999143      -0.1651127
0.016                  0.9999124      -0.2201472
0.02                   0.9999099      -0.2751791
0.024                  0.9999069      -0.3302078
0.028                  0.9999035      -0.3852326
0.032                  0.9998994      -0.4402531
0.036                  0.9998949      -0.4952683
0.04                   0.9998899      -0.5502779
0.044                  0.9998843      -0.6052813
0.048                  0.9998782      -0.6602778
0.052                  0.9998716       -0.715267
0.056                  0.9998646      -0.7702482
0.06                   0.9998572      -0.8252209
0.064                  0.9998492      -0.8801848
0.068                  0.9998409      -0.9351393
0.072                   0.999832      -0.9900839
0.076                  0.9998228       -1.045018
0.08                   0.9998132       -1.099942
0.084                  0.9998032       -1.154855
0.088                  0.9997928       -1.209756
0.092                  0.9997822       -1.264646
0.096                  0.9997711       -1.319523
0.1                    0.9997598       -1.374389
0.104                  0.9997482       -1.429242
0.108                  0.9997362       -1.484083
0.112                  0.9997241       -1.538911
0.116                  0.9997116       -1.593726
0.12                   0.9996989       -1.648529
0.124                  0.9996862        -1.70332
0.128                  0.9996732       -1.758097
0.132                  0.9996601       -1.812863
0.136                  0.9996467       -1.867616
0.14                   0.9996335       -1.922356
0.144                    0.99962       -1.977086
0.148                  0.9996065       -2.031803
0.152                  0.9995931        -2.08651
0.156                  0.9995796       -2.141206
0.16                   0.9995661       -2.195893
0.164                  0.9995527        -2.25057
0.168                  0.9995394       -2.305238
0.172                  0.9995261       -2.359898
0.176                   0.999513       -2.414551
0.18                   0.9995001       -2.469197
0.184                  0.9994873       -2.523838
0.188                  0.9994748       -2.578475
0.192                  0.9994626       -2.633108
0.196                  0.9994505       -2.687738
0.2                    0.9994388       -2.742368
0.204                  0.9994273       -2.796998
0.208                  0.9994163       -2.851629
0.212                  0.9994057       -2.906263
0.216                  0.9993954       -2.960901
0.22                   0.9993854       -3.015546
0.224                  0.9993761       -3.070198
0.228                  0.9993671       -3.124859
0.232                  0.9993586       -3.179532
0.236                  0.9993505       -3.234217
0.24                   0.9993432       -3.288917
0.244                  0.9993362       -3.343634
0.248                    0.99933       -3.398369
0.252                  0.9993243       -3.453126
0.256                  0.9993191       -3.507906
0.26                   0.9993146       -3.562711
0.264                  0.9993109       -3.617543
0.268                  0.9993077       -3.672406
0.272                  0.9993053         -3.7273
0.276                  0.9993034        -3.78223
0.28                   0.9993023       -3.837197
0.284                  0.9993019       -3.892204
0.288                  0.9993022       -3.947253
0.292                  0.9993032       -4.002347
0.296                  0.9993049       -4.057489
0.3                    0.9993075       -4.112681
0.304                  0.9993107       -4.167926
0.308                  0.9993146       -4.223228
0.312                  0.9993192       -4.278588
0.316                  0.9993247       -4.334009
0.32                   0.9993308       -4.389495
0.324                  0.9993376       -4.445047
0.328                  0.9993452        -4.50067
0.332                  0.9993534       -4.556365
0.336                  0.9993624       -4.612134
0.34                   0.9993719       -4.667984
0.344                  0.9993823       -4.723912
0.348                  0.9993932       -4.779926
0.352                  0.9994048       -4.836025
0.356                  0.9994169       -4.892214
0.36                   0.9994295       -4.948494
0.364                  0.9994428       -5.004869
0.368                  0.9994566        -5.06134
0.372                  0.9994708       -5.117912
0.376                  0.9994856       -5.174584
0.38                   0.9995008       -5.231362
0.384                  0.9995166       -5.288245
0.388                  0.9995325       -5.345238
0.392                  0.9995489       -5.402341
0.396                  0.9995655       -5.459558
0.4                    0.9995824       -5.516889
0.404                  0.9995995       -5.574337
0.408                  0.9996169       -5.631905
0.412                  0.9996343       -5.689593
0.416                   0.999652       -5.747403
0.42                   0.9996696       -5.805336
0.424                  0.9996872       -5.863395
0.428                  0.9997049       -5.921579
0.432                  0.9997224       -5.979891
0.436                  0.9997398       -6.038331
0.44                   0.9997571       -6.096901
0.444                  0.9997741       -6.155601
0.448                   0.999791       -6.214431
0.452                  0.9998074       -6.273394
0.456                  0.9998234       -6.332487
0.46                   0.9998391       -6.391713
0.464                  0.9998543       -6.451071
0.468                  0.9998691       -6.510562
0.472                  0.9998831       -6.570184
0.476                  0.9998968       -6.629937
0.48                   0.9999098       -6.689823
0.484                  0.9999219        -6.74984
0.488                  0.9999335       -6.809985
0.492                  0.9999442       -6.870261
0.496                  0.9999541       -6.930667
0.5                     0.999963       -6.991199
0.504                  0.9999712       -7.051858
0.508                  0.9999784       -7.112641
0.512                  0.9999846       -7.173549
0.516                  0.9999898       -7.234579
0.52                    0.999994       -7.295729
0.524                  0.9999971       -7.356999
0.528                   0.999999       -7.418387
0.532                          1       -7.479889
0.536                  0.9999996       -7.541506
0.54                   0.9999981       -7.603233
0.544                  0.9999955       -7.665068
0.548                  0.9999916       -7.727014
0.552                  0.9999865       -7.789062
0.556                  0.9999802       -7.851214
0.56                   0.9999725       -7.913466
0.564                  0.9999637       -7.975817
0.568                  0.9999536       -8.038262
0.572                  0.9999423       -8.100801
0.576                  0.9999298       -8.163431
0.58                   0.9999159       -8.226148
0.584                  0.9999008       -8.288954
0.588                  0.9998845       -8.351842
0.592                   0.999867       -8.414812
0.596                  0.9998483        -8.47786
0.6                    0.9998284       -8.540986
0.604                  0.9998074       -8.604184
0.608                  0.9997852       -8.667457
0.612                  0.9997619       -8.730801
0.616                  0.9997377       -8.794211
0.62                   0.9997124       -8.857689
0.624                  0.9996861       -8.921229
0.628                  0.9996588       -8.984834
0.632                  0.9996306       -9.048499
0.636                  0.9996017       -9.112225
0.64                    0.999572       -9.176008
0.644                  0.9995414       -9.239849
0.648                  0.9995102       -9.303747
0.652                  0.9994783       -9.367698
0.656                  0.9994458       -9.431707
0.66                    0.999413       -9.495768
0.664                  0.9993795       -9.559881
0.668                  0.9993457       -9.624051
0.672                  0.9993115       -9.688271
0.676                  0.9992771       -9.752547
0.68                   0.9992426       -9.816878
0.684                  0.9992078       -9.881262
0.688                   0.999173       -9.945703
0.692                  0.9991384        -10.0102
0.696                  0.9991037       -10.07475
0.7                    0.9990692       -10.13937
0.704                   0.999035       -10.20404
0.708                  0.9990009       -10.26878
0.712                  0.9989674       -10.33359
0.716                  0.9989343       -10.39846
0.72                   0.9989017        -10.4634
0.724                  0.9988697       -10.52842
0.728                  0.9988384       -10.59351
0.732                  0.9988077       -10.65869
0.736                  0.9987778       -10.72395
0.74                   0.9987489       -10.78929
0.744                  0.9987208       -10.85473
0.748                  0.9986937       -10.92026
0.752                  0.9986677       -10.98589
0.756                  0.9986427       -11.05163
0.76                   0.9986189       -11.11748
0.764                  0.9985963       -11.18344
0.768                  0.9985749       -11.24952
0.772                  0.9985547       -11.31573
0.776                   0.998536       -11.38207
0.78                   0.9985185       -11.44855
0.784                  0.9985025       -11.51517
0.788                  0.9984879       -11.58194
0.792                  0.9984747       -11.64886
0.796                  0.9984629       -11.71595
0.8                    0.9984527        -11.7832
0.804                   0.998444       -11.85063
0.808                  0.9984367       -11.91824
0.812                   0.998431       -11.98604
0.816                  0.9984268       -12.05403
0.82                   0.9984241       -12.12223
0.824                  0.9984229       -12.19063
0.828                  0.9984231       -12.25925
0.832                  0.9984248       -12.32809
0.836                   0.998428       -12.39716
0.84                   0.9984324       -12.46646
0.844                  0.9984383       -12.53601
0.848                  0.9984455       -12.60581
0.852                   0.998454       -12.67586
0.856                  0.9984636       -12.74618
0.86                   0.9984745       -12.81677
0.864                  0.9984865       -12.88763
0.868                  0.9984995       -12.95877
0.872                  0.9985135       -13.03021
0.876                  0.9985285       -13.10193
0.88                   0.9985442       -13.17396
0.884                  0.9985607       -13.24629
0.888                  0.9985779       -13.31894
0.892                  0.9985958        -13.3919
0.896                   0.998614       -13.46518
0.9                    0.9986325       -13.53879
0.904                  0.9986515       -13.61273
0.908                  0.9986707         -13.687
0.912                  0.9986899       -13.76162
0.916                  0.9987092       -13.83658
0.92                   0.9987282       -13.91189
0.924                   0.998747       -13.98754
0.928                  0.9987655       -14.06355
0.932                  0.9987835       -14.13992
0.936                   0.998801       -14.21665
0.94                   0.9988177       -14.29373
0.944                  0.9988336       -14.37118
0.948                  0.9988487       -14.44899
0.952                  0.9988626       -14.52717
0.956                  0.9988754       -14.60572
0.96                    0.998887       -14.68463
0.964                  0.9988969       -14.76391
0.968                  0.9989056       -14.84356
0.972                  0.9989125       -14.92357
0.976                  0.9989177       -15.00395
0.98                   0.9989212       -15.08469
0.984                  0.9989225        -15.1658
0.988                  0.9989218       -15.24727
0.992                   0.998919        -15.3291
0.996                  0.9989138       -15.41129
1                      0.9989064       -15.49383
1.004                  0.9988965       -15.57673
1.008                   0.998884       -15.65998
1.012                  0.9988689       -15.74357
1.016                  0.9988511       -15.82751
1.02                   0.9988305       -15.91179
1.024                   0.998807       -15.99641
1.028                  0.9987807       -16.08137
1.032                  0.9987514       -16.16664
1.036                  0.9987191       -16.25223
1.04                   0.9986836       -16.33816
1.044                  0.9986451       -16.42441
1.048                  0.9986034       -16.51093
1.052                  0.9985586       -16.59779
1.056                  0.9985106       -16.68494
1.06                   0.9984592       -16.77239
1.064                  0.9984049       -16.86015
1.068                  0.9983471       -16.94815
1.072                  0.9982862       -17.03648
1.076                  0.9982221       -17.12505
1.08                   0.9981548        -17.2139
1.084                  0.9980843       -17.30304
1.088                  0.9980108       -17.39244
1.092                  0.9979342       -17.48205
1.096                  0.9978544       -17.57196
1.1                    0.9977717       -17.66212
1.104                  0.9976861        -17.7525
1.108                  0.9975977       -17.84315
1.112                  0.9975065       -17.93402
1.116                  0.9974126        -18.0251
1.12                    0.997316       -18.11646
1.124                  0.9972169       -18.20804
1.128                  0.9971153       -18.29984
1.132                  0.9970115       -18.39186
1.136                  0.9969055       -18.48411
1.14                   0.9967973       -18.57658
1.144                  0.9966872       -18.66927
1.148                  0.9965753       -18.76218
1.152                  0.9964616       -18.85531
1.156                  0.9963464       -18.94866
1.16                   0.9962296       -19.04223
1.164                  0.9961116       -19.13603
1.168                  0.9959923       -19.23005
1.172                   0.995872        -19.3243
1.176                  0.9957508       -19.41877
1.18                   0.9956287       -19.51349
1.184                  0.9955063       -19.60843
1.188                  0.9953832       -19.70362
1.192                  0.9952599       -19.79906
1.196                  0.9951364       -19.89474
1.2                    0.9950129       -19.99069
1.204                  0.9948895       -20.08689
1.208                  0.9947665       -20.18337
1.212                  0.9946438       -20.28013
1.216                  0.9945217       -20.37718
1.22                   0.9944003       -20.47452
1.224                  0.9942797       -20.57216
1.228                    0.99416       -20.67012
1.232                  0.9940416       -20.76841
1.236                  0.9939242       -20.86703
1.24                   0.9938082       -20.96601
1.244                  0.9936935       -21.06534
1.248                  0.9935804       -21.16504
1.252                   0.993469       -21.26513
1.256                  0.9933592       -21.36562
1.26                   0.9932512       -21.46652
1.264                  0.9931451       -21.56784
1.268                  0.9930409       -21.66961
1.272                  0.9929387       -21.77183
1.276                  0.9928386       -21.87453
1.28                   0.9927406       -21.97771
1.284                  0.9926446        -22.0814
1.288                  0.9925507       -22.18561
1.292                   0.992459       -22.29035
1.296                  0.9923693       -22.39565
1.3                    0.9922819       -22.50151
1.304                  0.9921964       -22.60797
1.308                  0.9921131       -22.71503
1.312                  0.9920317       -22.82272
1.316                  0.9919523       -22.93104
1.32                   0.9918748       -23.04003
1.324                  0.9917991       -23.14969
1.328                   0.991725       -23.26004
1.332                  0.9916527        -23.3711
1.336                  0.9915817        -23.4829
1.34                   0.9915122       -23.59544
1.344                   0.991444       -23.70875
1.348                  0.9913767       -23.82283
1.352                  0.9913105       -23.93772
1.356                  0.9912449       -24.05343
1.36                     0.99118       -24.16996
1.364                  0.9911155       -24.28735
1.368                  0.9910511       -24.40559
1.372                  0.9909867       -24.52472
1.376                  0.9909221       -24.64475
1.38                    0.990857       -24.76568
1.384                  0.9907912       -24.88755
1.388                  0.9907244       -25.01035
1.392                  0.9906566        -25.1341
1.396                  0.9905871       -25.25883
1.4                     0.990516       -25.38453
1.404                  0.9904428       -25.51122
1.408                  0.9903674       -25.63892
1.412                  0.9902894       -25.76763
1.416                  0.9902086       -25.89736
1.42                   0.9901246       -26.02813
1.424                  0.9900371       -26.15994
1.428                  0.9899459       -26.29281
1.432                  0.9898506       -26.42674
1.436                   0.989751       -26.56173
1.44                   0.9896467        -26.6978
1.444                  0.9895374       -26.83495
1.448                  0.9894228       -26.97319
1.452                  0.9893026       -27.11252
1.456                  0.9891766       -27.25294
1.46                   0.9890443       -27.39447
1.464                  0.9889056       -27.53709
1.468                  0.9887601       -27.68083
1.472                  0.9886074       -27.82567
1.476                  0.9884474       -27.97162
1.48                   0.9882796       -28.11868
1.484                  0.9881041       -28.26684
1.488                  0.9879203       -28.41612
1.492                  0.9877279       -28.56651
1.496                  0.9875269         -28.718
1.5                    0.9873171       -28.87059
1.504                  0.9870978        -29.0243
1.508                  0.9868692        -29.1791
1.512                  0.9866309         -29.335
1.516                  0.9863826         -29.492
1.52                   0.9861244       -29.65008
1.524                   0.985856       -29.80925
1.528                   0.985577       -29.96952
1.532                  0.9852875       -30.13085
1.536                  0.9849873       -30.29326
1.54                   0.9846762       -30.45675
1.544                  0.9843541        -30.6213
1.548                  0.9840209       -30.78691
1.552                  0.9836765       -30.95358
1.556                  0.9833207       -31.12129
1.56                   0.9829537       -31.29006
1.564                  0.9825752       -31.45988
1.568                  0.9821853       -31.63074
1.572                  0.9817839       -31.80263
1.576                   0.981371       -31.97556
1.58                   0.9809464       -32.14952
1.584                  0.9805105        -32.3245
1.588                  0.9800631       -32.50052
1.592                  0.9796044       -32.67756
1.596                  0.9791342       -32.85562
1.6                    0.9786527       -33.03471
1.604                  0.9781599       -33.21482
1.608                  0.9776561       -33.39597
1.612                  0.9771411       -33.57814
1.616                  0.9766154       -33.76135
1.62                   0.9760787       -33.94558
1.624                  0.9755313       -34.13087
1.628                  0.9749735        -34.3172
1.632                  0.9744054       -34.50457
1.636                  0.9738269       -34.69302
1.64                   0.9732383       -34.88254
1.644                  0.9726399       -35.07313
1.648                  0.9720317       -35.26482
1.652                  0.9714141       -35.45761
1.656                   0.970787       -35.65153
1.66                   0.9701509       -35.84658
1.664                  0.9695057       -36.04278
1.668                  0.9688517       -36.24015
1.672                  0.9681892       -36.43872
1.676                  0.9675181        -36.6385
1.68                   0.9668391       -36.83951
1.684                  0.9661517       -37.04179
1.688                  0.9654566       -37.24534
1.692                  0.9647538       -37.45021
1.696                  0.9640433       -37.65642
1.7                    0.9633257       -37.86401
1.704                  0.9626005       -38.07301
1.708                  0.9618685       -38.28344
1.712                  0.9611293       -38.49534
1.716                  0.9603832       -38.70876
1.72                   0.9596305       -38.92372
1.724                   0.958871       -39.14028
1.728                  0.9581047       -39.35848
1.732                  0.9573319       -39.57835
1.736                  0.9565525       -39.79994
1.74                   0.9557665        -40.0233
1.744                  0.9549739       -40.24848
1.748                  0.9541747       -40.47552
1.752                  0.9533686       -40.70448
1.756                  0.9525557       -40.93541
1.76                    0.951736       -41.16836
1.764                   0.950909        -41.4034
1.768                  0.9500749       -41.64056
1.772                  0.9492334       -41.87993
1.776                  0.9483841       -42.12154
1.78                   0.9475268       -42.36547
1.784                  0.9466611       -42.61178
1.788                   0.945787       -42.86052
1.792                  0.9449039       -43.11176
1.796                  0.9440114       -43.36557
1.8                    0.9431091         -43.622
1.804                  0.9421966       -43.88113
1.808                  0.9412733       -44.14303
1.812                  0.9403386       -44.40775
1.816                  0.9393922       -44.67538
1.82                   0.9384332       -44.94596
1.824                  0.9374612       -45.21959
1.828                  0.9364753       -45.49631
1.832                  0.9354749       -45.77621
1.836                   0.934459       -46.05936
1.84                   0.9334273        -46.3458
1.844                  0.9323786       -46.63565
1.848                  0.9313121       -46.92894
1.852                   0.930227       -47.22575
1.856                  0.9291222       -47.52616
1.86                    0.927997       -47.83023
1.864                  0.9268499       -48.13805
1.868                  0.9256805       -48.44965
1.872                  0.9244874       -48.76513
1.876                  0.9232694       -49.08454
1.88                   0.9220255       -49.40797
1.884                  0.9207546       -49.73546
1.888                  0.9194554        -50.0671
1.892                  0.9181268       -50.40295
1.896                  0.9167673       -50.74307
1.9                    0.9153759       -51.08753
1.904                  0.9139511       -51.43638
1.908                  0.9124919       -51.78971
1.912                  0.9109967       -52.14756
1.916                  0.9094642       -52.50999
1.92                    0.907893       -52.87709
1.924                  0.9062816       -53.24888
1.928                  0.9046289       -53.62545
1.932                  0.9029332       -54.00684
1.936                  0.9011933       -54.39312
1.94                   0.8994074       -54.78433
1.944                  0.8975743       -55.18055
1.948                  0.8956926       -55.58179
1.952                  0.8937606       -55.98816
1.956                   0.891777       -56.39968
1.96                   0.8897402        -56.8164
1.964                   0.887649       -57.23837
1.968                  0.8855015       -57.66566
1.972                  0.8832965       -58.09831
1.976                  0.8810326       -58.53634
1.98                   0.8787081       -58.97984
1.984                  0.8763217       -59.42884
1.988                   0.873872       -59.88339
1.992                  0.8713574       -60.34352
1.996                  0.8687768       -60.80929
2                      0.8661286       -61.28074
2.004                  0.8634113       -61.75792
2.008                  0.8606238       -62.24087
2.012                  0.8577648       -62.72964
2.016                  0.8548327       -63.22425
2.02                   0.8518265       -63.72477
2.024                  0.8487448       -64.23123
2.028                  0.8455864       -64.74368
2.032                  0.8423503       -65.26217
2.036                   0.839035       -65.78674
2.04                   0.8356395       -66.31743
2.044                  0.8321629       -66.85428
2.048                   0.828604       -67.39735
2.052                  0.8249619       -67.94668
2.056                  0.8212354       -68.50231
2.06                   0.8174237       -69.06431
2.064                  0.8135262       -69.63272
2.068                  0.8095418       -70.20758
2.072                  0.8054695       -70.78896
2.076                  0.8013092       -71.37691
2.08                   0.7970595       -71.97148
2.084                  0.7927204       -72.57274
2.088                  0.7882909       -73.18073
2.092                  0.7837706       -73.79555
2.096                  0.7791592       -74.41722
2.1                    0.7744561       -75.04585
2.104                   0.769661       -75.68151
2.108                  0.7647737       -76.32424
2.112                   0.759794       -76.97415
2.116                  0.7547217       -77.63132
2.12                   0.7495566       -78.29583
2.124                  0.7442989       -78.96779
2.128                  0.7389485       -79.64727
2.132                  0.7335054        -80.3344
2.136                  0.7279701       -81.02926
2.14                   0.7223426       -81.73198
2.144                  0.7166234       -82.44269
2.148                  0.7108128       -83.16148
2.152                  0.7049112       -83.88853
2.156                  0.6989193       -84.62395
2.16                   0.6928378       -85.36791
2.164                  0.6866671       -86.12055
2.168                  0.6804083       -86.88205
2.172                  0.6740622       -87.65259
2.176                  0.6676297       -88.43235
2.18                   0.6611119       -89.22151
2.184                  0.6545099       -90.02033
2.188                  0.6478249         -90.829
2.192                  0.6410582       -91.64776
2.196                  0.6342114       -92.47686
2.2                    0.6272857       -93.31658
2.204                  0.6202828        -94.1672
2.208                  0.6132045       -95.02901
2.212                  0.6060524       -95.90234
2.216                  0.5988286       -96.78751
2.22                   0.5915349        -97.6849
2.224                  0.5841735       -98.59488
2.228                  0.5767466       -99.51786
2.232                  0.5692565       -100.4543
2.236                  0.5617058       -101.4046
2.24                   0.5540969       -102.3693
2.244                  0.5464326       -103.3488
2.248                  0.5387157       -104.3439
2.252                  0.5309492       -105.3549
2.256                  0.5231362       -106.3826
2.26                   0.5152799       -107.4277
2.264                  0.5073838       -108.4907
2.268                  0.4994514       -109.5725
2.272                  0.4914865       -110.6739
2.276                  0.4834931       -111.7957
2.28                   0.4754752       -112.9389
2.284                  0.4674373       -114.1043
2.288                  0.4593837       -115.2931
2.292                  0.4513194       -116.5063
2.296                  0.4432492        -117.745
2.3                    0.4351784       -119.0105
2.304                  0.4271126       -120.3041
2.308                  0.4190575       -121.6273
2.312                  0.4110193       -122.9814
2.316                  0.4030044        -124.368
2.32                   0.3950196       -125.7888
2.324                   0.387072       -127.2456
2.328                  0.3791691       -128.7401
2.332                   0.371319       -130.2743
2.336                  0.3635301       -131.8503
2.34                   0.3558112       -133.4702
2.344                  0.3481717       -135.1362
2.348                  0.3406216       -136.8506
2.352                  0.3331714       -138.6158