! TOUCHSTONE file generated by CST MICROWAVE STUDIO
! Date and time: Thu May 12 18:27:55 2022
! Project name: AppElm_antenne_dipole_FR4.cst
! Parameters = {L=38.8; e=0.035; f=2.45e+09; h=1.6; i=0.8; l1=4; lambda=122.449; ls=27; wl=1.7; ws=80}
! Header version: 2018
! Port assignment regex: !\s*Touchstone port\s*([0-9]+)\s*=\s*(CST MWS port|CST DS port)\s*([0-9]+|Zmin|Zmax)\s*\(\"(.*)\"\)(\s*mode\s*([0-9]+))?.*
! Touchstone port assignment:
! Touchstone port 1 = CST MWS port 1 ("")
# GHz S MA R 50
0                      0.9999195              -0
0.004                  0.9999192     -0.05507496
0.008                  0.9999184      -0.1101492
0.012                   0.999917       -0.165222
0.016                  0.9999151      -0.2202926
0.02                   0.9999125      -0.2753603
0.024                  0.9999094      -0.3304245
0.028                  0.9999057      -0.3854844
0.032                  0.9999016      -0.4405393
0.036                  0.9998968      -0.4955886
0.04                   0.9998915      -0.5506315
0.044                  0.9998856      -0.6056676
0.048                  0.9998793      -0.6606961
0.052                  0.9998726      -0.7157163
0.056                  0.9998653      -0.7707277
0.06                   0.9998574      -0.8257299
0.064                  0.9998492      -0.8807221
0.068                  0.9998405      -0.9357038
0.072                  0.9998313      -0.9906747
0.076                  0.9998217       -1.045634
0.08                   0.9998118       -1.100582
0.084                  0.9998015       -1.155517
0.088                  0.9997906        -1.21044
0.092                  0.9997795        -1.26535
0.096                   0.999768       -1.320247
0.1                    0.9997563        -1.37513
0.104                  0.9997443           -1.43
0.108                  0.9997319       -1.484856
0.112                  0.9997192       -1.539698
0.116                  0.9997063       -1.594526
0.12                   0.9996933        -1.64934
0.124                  0.9996799        -1.70414
0.128                  0.9996667       -1.758926
0.132                  0.9996531       -1.813699
0.136                  0.9996393       -1.868458
0.14                   0.9996256       -1.923203
0.144                  0.9996117       -1.977936
0.148                  0.9995978       -2.032655
0.152                   0.999584       -2.087363
0.156                  0.9995701       -2.142058
0.16                   0.9995563       -2.196743
0.164                  0.9995425       -2.251417
0.168                  0.9995288       -2.306082
0.172                  0.9995153       -2.360737
0.176                  0.9995018       -2.415384
0.18                   0.9994886       -2.470023
0.184                  0.9994756       -2.524657
0.188                  0.9994628       -2.579285
0.192                  0.9994502       -2.633908
0.196                  0.9994379       -2.688529
0.2                     0.999426       -2.743148
0.204                  0.9994145       -2.797766
0.208                  0.9994033       -2.852386
0.212                  0.9993924       -2.907008
0.216                  0.9993819       -2.961634
0.22                    0.999372       -3.016265
0.224                  0.9993624       -3.070905
0.228                  0.9993535       -3.125553
0.232                   0.999345       -3.180211
0.236                   0.999337       -3.234883
0.24                   0.9993296        -3.28957
0.244                  0.9993228       -3.344274
0.248                  0.9993165       -3.398997
0.252                  0.9993109       -3.453741
0.256                   0.999306       -3.508508
0.26                   0.9993017       -3.563301
0.264                   0.999298       -3.618122
0.268                   0.999295       -3.672975
0.272                  0.9992927       -3.727859
0.276                  0.9992911        -3.78278
0.28                   0.9992902       -3.837738
0.284                  0.9992901       -3.892737
0.288                  0.9992907       -3.947779
0.292                   0.999292       -4.002867
0.296                  0.9992941       -4.058005
0.3                     0.999297       -4.113192
0.304                  0.9993005       -4.168435
0.308                  0.9993049       -4.223735
0.312                  0.9993099       -4.279095
0.316                  0.9993158       -4.334516
0.32                   0.9993222       -4.390005
0.324                  0.9993295        -4.44556
0.328                  0.9993375       -4.501187
0.332                  0.9993461       -4.556888
0.336                  0.9993555       -4.612667
0.34                   0.9993656       -4.668524
0.344                  0.9993763       -4.724464
0.348                  0.9993876       -4.780488
0.352                  0.9993997       -4.836601
0.356                  0.9994122       -4.892805
0.36                   0.9994254       -4.949101
0.364                   0.999439       -5.005493
0.368                  0.9994533       -5.061983
0.372                   0.999468       -5.118575
0.376                  0.9994832        -5.17527
0.38                   0.9994988        -5.23207
0.384                  0.9995149       -5.288978
0.388                  0.9995313       -5.345996
0.392                   0.999548       -5.403126
0.396                   0.999565       -5.460371
0.4                    0.9995823       -5.517732
0.404                  0.9995997       -5.575212
0.408                  0.9996175        -5.63281
0.412                  0.9996352       -5.690531
0.416                  0.9996531       -5.748374
0.42                    0.999671       -5.806342
0.424                   0.999689       -5.864437
0.428                  0.9997068       -5.922657
0.432                  0.9997246       -5.981007
0.436                  0.9997423       -6.039485
0.44                   0.9997596       -6.098094
0.444                  0.9997769       -6.156832
0.448                  0.9997937       -6.215704
0.452                  0.9998103       -6.274705
0.456                  0.9998265        -6.33384
0.46                   0.9998422       -6.393106
0.464                  0.9998574       -6.452505
0.468                  0.9998723       -6.512036
0.472                  0.9998865         -6.5717
0.476                  0.9998999       -6.631495
0.48                   0.9999128       -6.691422
0.484                  0.9999248       -6.751479
0.488                  0.9999363       -6.811666
0.492                  0.9999468       -6.871983
0.496                  0.9999565       -6.932428
0.5                    0.9999654          -6.993
0.504                  0.9999732       -7.053699
0.508                  0.9999803        -7.11452
0.512                  0.9999863       -7.175465
0.516                  0.9999911       -7.236532
0.52                   0.9999951       -7.297719
0.524                  0.9999978       -7.359026
0.528                  0.9999995       -7.420446
0.532                          1       -7.481983
0.536                  0.9999994       -7.543633
0.54                   0.9999975       -7.605392
0.544                  0.9999945       -7.667258
0.548                  0.9999902       -7.729232
0.552                  0.9999846       -7.791309
0.556                  0.9999779       -7.853489
0.56                   0.9999698       -7.915766
0.564                  0.9999605        -7.97814
0.568                    0.99995       -8.040609
0.572                  0.9999382        -8.10317
0.576                  0.9999251        -8.16582
0.58                   0.9999108        -8.22856
0.584                  0.9998954       -8.291382
0.588                  0.9998786       -8.354286
0.592                  0.9998605       -8.417272
0.596                  0.9998413       -8.480334
0.6                    0.9998211       -8.543472
0.604                  0.9997995       -8.606684
0.608                  0.9997771       -8.669964
0.612                  0.9997533       -8.733317
0.616                  0.9997286       -8.796735
0.62                   0.9997029       -8.860218
0.624                  0.9996762       -8.923765
0.628                  0.9996485       -8.987373
0.632                    0.99962       -9.051041
0.636                  0.9995907       -9.114768
0.64                   0.9995604       -9.178553
0.644                  0.9995296       -9.242394
0.648                  0.9994981       -9.306291
0.652                  0.9994659        -9.37024
0.656                  0.9994332       -9.434244
0.66                      0.9994       -9.498302
0.664                  0.9993663       -9.562413
0.668                  0.9993323       -9.626576
0.672                   0.999298       -9.690792
0.676                  0.9992636       -9.755062
0.68                   0.9992287       -9.819386
0.684                  0.9991939       -9.883764
0.688                  0.9991591       -9.948198
0.692                  0.9991243       -10.01269
0.696                  0.9990897       -10.07724
0.7                    0.9990551       -10.14184
0.704                  0.9990208       -10.20651
0.708                  0.9989869       -10.27125
0.712                  0.9989534       -10.33604
0.716                  0.9989205       -10.40091
0.72                   0.9988879       -10.46585
0.724                  0.9988561       -10.53086
0.728                   0.998825       -10.59595
0.732                  0.9987945       -10.66112
0.736                  0.9987648       -10.72638
0.74                   0.9987362       -10.79172
0.744                  0.9987083       -10.85715
0.748                  0.9986816       -10.92268
0.752                  0.9986557       -10.98832
0.756                  0.9986311       -11.05406
0.76                   0.9986077       -11.11991
0.764                  0.9985854       -11.18588
0.768                  0.9985645       -11.25196
0.772                  0.9985448       -11.31818
0.776                  0.9985264       -11.38453
0.78                   0.9985094       -11.45101
0.784                  0.9984938       -11.51765
0.788                  0.9984796       -11.58443
0.792                  0.9984669       -11.65137
0.796                  0.9984556       -11.71847
0.8                     0.998446       -11.78574
0.804                  0.9984377       -11.85319
0.808                   0.998431       -11.92082
0.812                  0.9984258       -11.98864
0.816                  0.9984221       -12.05666
0.82                   0.9984199       -12.12488
0.824                  0.9984191       -12.19331
0.828                  0.9984199       -12.26196
0.832                  0.9984221       -12.33083
0.836                  0.9984257       -12.39993
0.84                   0.9984307       -12.46928
0.844                  0.9984371       -12.53886
0.848                  0.9984447        -12.6087
0.852                  0.9984538       -12.67879
0.856                  0.9984639       -12.74915
0.86                   0.9984752       -12.81978
0.864                  0.9984875       -12.89069
0.868                  0.9985011       -12.96188
0.872                  0.9985155       -13.03336
0.876                  0.9985307       -13.10514
0.88                   0.9985469       -13.17721
0.884                  0.9985637        -13.2496
0.888                  0.9985813        -13.3223
0.892                  0.9985993       -13.39531
0.896                  0.9986178       -13.46865
0.9                    0.9986367       -13.54232
0.904                  0.9986558       -13.61632
0.908                  0.9986751       -13.69065
0.912                  0.9986946       -13.76533
0.916                  0.9987139       -13.84035
0.92                   0.9987332       -13.91572
0.924                  0.9987521       -13.99144
0.928                  0.9987707       -14.06751
0.932                  0.9987888       -14.14394
0.936                  0.9988062       -14.22073
0.94                    0.998823       -14.29788
0.944                  0.9988389       -14.37539
0.948                  0.9988539       -14.45327
0.952                  0.9988677       -14.53151
0.956                  0.9988803       -14.61012
0.96                   0.9988917        -14.6891
0.964                  0.9989017       -14.76844
0.968                  0.9989101       -14.84815
0.972                  0.9989167       -14.92823
0.976                  0.9989217       -15.00867
0.98                   0.9989248       -15.08948
0.984                  0.9989259       -15.17065
0.988                  0.9989249       -15.25218
0.992                  0.9989218       -15.33407
0.996                  0.9989163       -15.41632
1                      0.9989084       -15.49893
1.004                  0.9988981       -15.58188
1.008                  0.9988852       -15.66519
1.012                  0.9988697       -15.74884
1.016                  0.9988514       -15.83284
1.02                   0.9988303       -15.91717
1.024                  0.9988064       -16.00184
1.028                  0.9987797       -16.08686
1.032                  0.9987499       -16.17218
1.036                   0.998717       -16.25781
1.04                    0.998681       -16.34379
1.044                   0.998642       -16.43009
1.048                  0.9985999       -16.51667
1.052                  0.9985544       -16.60358
1.056                  0.9985058       -16.69076
1.06                   0.9984541       -16.77827
1.064                  0.9983991       -16.86605
1.068                  0.9983409        -16.9541
1.072                  0.9982795       -17.04249
1.076                  0.9982148       -17.13111
1.08                    0.998147       -17.21996
1.084                  0.9980761       -17.30914
1.088                   0.998002       -17.39856
1.092                  0.9979249       -17.48825
1.096                  0.9978447       -17.57819
1.1                    0.9977616       -17.66838
1.104                  0.9976755       -17.75878
1.108                  0.9975868       -17.84946
1.112                  0.9974951       -17.94038
1.116                  0.9974008        -18.0315
1.12                   0.9973039       -18.12289
1.124                  0.9972045       -18.21449
1.128                  0.9971027       -18.30631
1.132                  0.9969986       -18.39836
1.136                  0.9968923       -18.49064
1.14                   0.9967839       -18.58314
1.144                  0.9966736       -18.67586
1.148                  0.9965615        -18.7688
1.152                  0.9964476       -18.86196
1.156                  0.9963323       -18.95534
1.16                   0.9962154       -19.04894
1.164                  0.9960972       -19.14277
1.168                   0.995978       -19.23682
1.172                  0.9958576        -19.3311
1.176                  0.9957364       -19.42561
1.18                   0.9956145       -19.52036
1.184                   0.995492       -19.61534
1.188                   0.995369       -19.71056
1.192                  0.9952458       -19.80604
1.196                  0.9951226       -19.90176
1.2                    0.9949992       -19.99775
1.204                   0.994876       -20.09399
1.208                  0.9947531       -20.19052
1.212                  0.9946306       -20.28732
1.216                  0.9945088       -20.38441
1.22                   0.9943876        -20.4818
1.224                  0.9942674        -20.5795
1.228                  0.9941479       -20.67752
1.232                  0.9940297       -20.77586
1.236                  0.9939127       -20.87454
1.24                    0.993797       -20.97357
1.244                  0.9936829       -21.07296
1.248                  0.9935701       -21.17273
1.252                   0.993459       -21.27288
1.256                  0.9933496       -21.37344
1.26                   0.9932421       -21.47441
1.264                  0.9931363       -21.57581
1.268                  0.9930327       -21.67765
1.272                  0.9929308       -21.77996
1.276                  0.9928311       -21.88274
1.28                   0.9927334         -21.986
1.284                  0.9926379       -22.08978
1.288                  0.9925444       -22.19408
1.292                  0.9924529       -22.29891
1.296                  0.9923637       -22.40431
1.3                    0.9922765       -22.51028
1.304                  0.9921916       -22.61683
1.308                  0.9921085         -22.724
1.312                  0.9920274       -22.83179
1.316                  0.9919483       -22.94023
1.32                   0.9918711       -23.04933
1.324                  0.9917955        -23.1591
1.328                  0.9917217       -23.26958
1.332                  0.9916496       -23.38076
1.336                  0.9915787       -23.49268
1.34                   0.9915093       -23.60535
1.344                  0.9914412       -23.71879
1.348                   0.991374       -23.83301
1.352                  0.9913077       -23.94803
1.356                  0.9912422       -24.06387
1.36                   0.9911772       -24.18054
1.364                  0.9911126       -24.29807
1.368                   0.991048       -24.41646
1.372                  0.9909834       -24.53573
1.376                  0.9909187       -24.65591
1.38                   0.9908532         -24.777
1.384                  0.9907872       -24.89901
1.388                    0.99072       -25.02196
1.392                  0.9906517       -25.14587
1.396                  0.9905818       -25.27075
1.4                    0.9905102       -25.39661
1.404                  0.9904365       -25.52346
1.408                  0.9903605       -25.65131
1.412                  0.9902818       -25.78019
1.416                  0.9902003       -25.91008
1.42                   0.9901155       -26.04102
1.424                  0.9900273       -26.17299
1.428                  0.9899352       -26.30602
1.432                   0.989839       -26.44011
1.436                  0.9897384       -26.57527
1.44                   0.9896331       -26.71151
1.444                  0.9895229       -26.84882
1.448                  0.9894072       -26.98723
1.452                  0.9892859       -27.12673
1.456                  0.9891586       -27.26732
1.46                   0.9890252       -27.40901
1.464                  0.9888852        -27.5518
1.468                  0.9887383       -27.69571
1.472                  0.9885844       -27.84071
1.476                  0.9884229       -27.98683
1.48                   0.9882539       -28.13405
1.484                  0.9880767       -28.28239
1.488                  0.9878914       -28.43183
1.492                  0.9876977       -28.58238
1.496                  0.9874951       -28.73404
1.5                    0.9872835        -28.8868
1.504                  0.9870628       -29.04066
1.508                  0.9868324       -29.19564
1.512                  0.9865924        -29.3517
1.516                  0.9863426       -29.50886
1.52                   0.9860827        -29.6671
1.524                  0.9858124       -29.82644
1.528                  0.9855318       -29.98686
1.532                  0.9852406       -30.14836
1.536                  0.9849385       -30.31094
1.54                   0.9846256       -30.47458
1.544                  0.9843016       -30.63929
1.548                  0.9839666       -30.80507
1.552                  0.9836203       -30.97189
1.556                  0.9832628       -31.13977
1.56                   0.9828938       -31.30871
1.564                  0.9825135       -31.47868
1.568                  0.9821217        -31.6497
1.572                  0.9817183       -31.82176
1.576                  0.9813034       -31.99484
1.58                   0.9808771       -32.16896
1.584                  0.9804391       -32.34412
1.588                  0.9799899       -32.52029
1.592                  0.9795292        -32.6975
1.596                  0.9790572       -32.87573
1.6                    0.9785738       -33.05499
1.604                  0.9780791       -33.23527
1.608                  0.9775733       -33.41658
1.612                  0.9770565       -33.59893
1.616                  0.9765287        -33.7823
1.62                   0.9759902       -33.96671
1.624                  0.9754408       -34.15217
1.628                  0.9748811       -34.33868
1.632                   0.974311       -34.52623
1.636                  0.9737305       -34.71487
1.64                   0.9731401       -34.90456
1.644                  0.9725398       -35.09534
1.648                  0.9719296       -35.28722
1.652                  0.9713101       -35.48021
1.656                  0.9706811       -35.67431
1.66                   0.9700428       -35.86956
1.664                  0.9693957       -36.06597
1.668                  0.9687398       -36.26354
1.672                  0.9680752       -36.46232
1.676                  0.9674023        -36.6623
1.68                    0.966721       -36.86353
1.684                  0.9660318       -37.06602
1.688                  0.9653345        -37.2698
1.692                  0.9646295        -37.4749
1.696                  0.9639171       -37.68134
1.7                    0.9631971       -37.88916
1.704                    0.96247       -38.09839
1.708                  0.9617357       -38.30907
1.712                  0.9609942       -38.52122
1.716                   0.960246       -38.73489
1.72                   0.9594908       -38.95011
1.724                  0.9587289       -39.16694
1.728                  0.9579602        -39.3854
1.732                  0.9571848       -39.60554
1.736                   0.956403        -39.8274
1.74                   0.9556144       -40.05104
1.744                  0.9548192        -40.2765
1.748                  0.9540171       -40.50383
1.752                  0.9532083       -40.73309
1.756                  0.9523925       -40.96432
1.76                   0.9515698       -41.19758
1.764                    0.95074       -41.43292
1.768                  0.9499027       -41.67041
1.772                  0.9490579       -41.91009
1.776                  0.9482053       -42.15203
1.78                   0.9473447       -42.39629
1.784                  0.9464756       -42.64292
1.788                  0.9455978       -42.89201
1.792                   0.944711       -43.14359
1.796                  0.9438148       -43.39774
1.8                    0.9429087       -43.65453
1.804                  0.9419922       -43.91401
1.808                  0.9410647       -44.17627
1.812                  0.9401259       -44.44136
1.816                  0.9391751       -44.70935
1.82                   0.9382117        -44.9803
1.824                  0.9372352        -45.2543
1.828                  0.9362445        -45.5314
1.832                  0.9352393       -45.81168
1.836                  0.9342187       -46.09521
1.84                   0.9331818       -46.38206
1.844                  0.9321279       -46.67229
1.848                  0.9310561       -46.96597
1.852                  0.9299656       -47.26318
1.856                  0.9288553       -47.56399
1.86                   0.9277242       -47.86846
1.864                  0.9265714       -48.17667
1.868                  0.9253961       -48.48868
1.872                  0.9241967       -48.80457
1.876                  0.9229726       -49.12439
1.88                   0.9217223       -49.44823
1.884                  0.9204449       -49.77613
1.888                  0.9191391       -50.10818
1.892                  0.9178037       -50.44444
1.896                  0.9164375       -50.78498
1.9                    0.9150391       -51.12985
1.904                  0.9136073       -51.47912
1.908                  0.9121409       -51.83285
1.912                  0.9106382       -52.19112
1.916                  0.9090983       -52.55397
1.92                   0.9075195       -52.92148
1.924                  0.9059006       -53.29369
1.928                  0.9042399       -53.67068
1.932                  0.9025363       -54.05248
1.936                  0.9007885       -54.43917
1.94                   0.8989945        -54.8308
1.944                  0.8971534       -55.22742
1.948                  0.8952634       -55.62909
1.952                   0.893323       -56.03586
1.956                   0.891331       -56.44779
1.96                   0.8892858       -56.86491
1.964                  0.8871859        -57.2873
1.968                  0.8850299         -57.715
1.972                  0.8828162       -58.14806
1.976                  0.8805435        -58.5865
1.98                   0.8782103       -59.03041
1.984                  0.8758151        -59.4798
1.988                  0.8733566       -59.93475
1.992                  0.8708332        -60.3953
1.996                  0.8682437       -60.86146
2                      0.8655865       -61.33332
2.004                  0.8628605        -61.8109
2.008                   0.860064       -62.29425
2.012                  0.8571959       -62.78341
2.016                   0.854255       -63.27843
2.02                   0.8512399       -63.77936
2.024                  0.8481494       -64.28621
2.028                   0.844982       -64.79908
2.032                   0.841737       -65.31797
2.036                  0.8384129       -65.84294
2.04                   0.8350088       -66.37404
2.044                  0.8315235        -66.9113
2.048                   0.827956       -67.45477
2.052                  0.8243052       -68.00452
2.056                  0.8205702       -68.56057
2.06                   0.8167503       -69.12299
2.064                  0.8128443       -69.69182
2.068                  0.8088517        -70.2671
2.072                  0.8047714       -70.84891
2.076                  0.8006029       -71.43728
2.08                   0.7963453        -72.0323
2.084                  0.7919984       -72.63399
2.088                  0.7875613       -73.24245
2.092                  0.7830336       -73.85771
2.096                  0.7784146       -74.47986
2.1                    0.7737043       -75.10896
2.104                  0.7689023       -75.74509
2.108                  0.7640081       -76.38833
2.112                  0.7590216       -77.03874
2.116                  0.7539427       -77.69642
2.12                   0.7487713       -78.36146
2.124                  0.7435073       -79.03393
2.128                  0.7381508       -79.71397
2.132                   0.732702       -80.40164
2.136                  0.7271611       -81.09708
2.14                   0.7215282        -81.8004
2.144                  0.7158038        -82.5117
2.148                  0.7099883       -83.23114
2.152                   0.704082       -83.95883
2.156                  0.6980856        -84.6949
2.16                   0.6919999       -85.43956
2.164                  0.6858253        -86.1929
2.168                  0.6795628       -86.95513
2.172                  0.6732133       -87.72641
2.176                  0.6667776       -88.50697
2.18                   0.6602569       -89.29695
2.184                  0.6536523        -90.0966
2.188                  0.6469651       -90.90614
2.192                  0.6401964       -91.72582
2.196                  0.6333478       -92.55585
2.2                    0.6264208       -93.39656
2.204                  0.6194169       -94.24818
2.208                  0.6123378       -95.11105
2.212                  0.6051854       -95.98548
2.216                  0.5979615       -96.87182
2.22                   0.5906683        -97.7704
2.224                  0.5833074       -98.68163
2.228                  0.5758816       -99.60592
2.232                  0.5683931       -100.5437
2.236                  0.5608442       -101.4954
2.24                   0.5532376       -102.4616
2.244                   0.545576       -103.4427
2.248                  0.5378621       -104.4394
2.252                  0.5300991       -105.4521
2.256                  0.5222901       -106.4816
2.26                   0.5144382       -107.5285
2.264                   0.506547       -108.5935
2.268                  0.4986201       -109.6774
2.272                  0.4906611       -110.7809
2.276                  0.4826742        -111.905
2.28                   0.4746634       -113.0505
2.284                   0.466633       -114.2184
2.288                  0.4585876       -115.4097
2.292                  0.4505319       -116.6256
2.296                  0.4424712       -117.8672
2.3                    0.4344105       -119.1357
2.304                  0.4263555       -120.4324
2.308                  0.4183119       -121.7589
2.312                   0.410286       -123.1164
2.316                  0.4022841       -124.5066
2.32                   0.3943132       -125.9312
2.324                  0.3863803       -127.3919
2.328                  0.3784931       -128.8906
2.332                  0.3706596       -130.4291
2.336                  0.3628882       -132.0096
2.34                   0.3551879       -133.6342
2.344                  0.3475681       -135.3051
2.348                  0.3400389       -137.0246
2.352                  0.3326107       -138.7951