! TOUCHSTONE file generated by CST MICROWAVE STUDIO
! Date and time: Thu May 12 17:57:37 2022
! Project name: AppElm_antenne_dipole_FR4.cst
! Parameters = {L=38.8; e=0.035; f=2.45e+09; h=1.6; i=0.8; l1=4; lambda=122.449; ls=30; wl=1.7; ws=96}
! Header version: 2018
! Port assignment regex: !\s*Touchstone port\s*([0-9]+)\s*=\s*(CST MWS port|CST DS port)\s*([0-9]+|Zmin|Zmax)\s*\(\"(.*)\"\)(\s*mode\s*([0-9]+))?.*
! Touchstone port assignment:
! Touchstone port 1 = CST MWS port 1 ("")
# GHz S MA R 50
0                      0.9999104              -0
0.004                    0.99991     -0.05494895
0.008                  0.9999096      -0.1098976
0.012                  0.9999085      -0.1648455
0.016                  0.9999069      -0.2197924
0.02                   0.9999049      -0.2747381
0.024                  0.9999025       -0.329682
0.028                  0.9998996       -0.384624
0.032                  0.9998964      -0.4395637
0.036                  0.9998928      -0.4945007
0.04                   0.9998886      -0.5494348
0.044                  0.9998841      -0.6043657
0.048                  0.9998791       -0.659293
0.052                  0.9998739      -0.7142165
0.056                  0.9998681       -0.769136
0.06                    0.999862       -0.824051
0.064                  0.9998556      -0.8789613
0.068                  0.9998487      -0.9338668
0.072                  0.9998414      -0.9887672
0.076                  0.9998338       -1.043662
0.08                    0.999826       -1.098551
0.084                  0.9998178       -1.153435
0.088                  0.9998092       -1.208313
0.092                  0.9998003       -1.263184
0.096                  0.9997912        -1.31805
0.1                    0.9997817       -1.372909
0.104                   0.999772       -1.427761
0.108                  0.9997621       -1.482607
0.112                  0.9997518       -1.537447
0.116                  0.9997413       -1.592279
0.12                   0.9997308       -1.647105
0.124                    0.99972       -1.701925
0.128                   0.999709       -1.756738
0.132                  0.9996978       -1.811545
0.136                  0.9996865       -1.866346
0.14                    0.999675        -1.92114
0.144                  0.9996636       -1.975929
0.148                   0.999652       -2.030712
0.152                  0.9996403        -2.08549
0.156                  0.9996286       -2.140262
0.16                   0.9996169       -2.195031
0.164                  0.9996051       -2.249795
0.168                  0.9995935       -2.304555
0.172                  0.9995817       -2.359313
0.176                  0.9995701       -2.414068
0.18                   0.9995586       -2.468821
0.184                  0.9995473       -2.523573
0.188                   0.999536       -2.578324
0.192                  0.9995248       -2.633077
0.196                  0.9995139        -2.68783
0.2                    0.9995032       -2.742586
0.204                  0.9994927       -2.797344
0.208                  0.9994824       -2.852107
0.212                  0.9994725       -2.906876
0.216                  0.9994628       -2.961651
0.22                   0.9994534       -3.016434
0.224                  0.9994443       -3.071226
0.228                  0.9994356       -3.126029
0.232                  0.9994274       -3.180844
0.236                  0.9994195       -3.235672
0.24                    0.999412       -3.290515
0.244                  0.9994051       -3.345375
0.248                  0.9993985       -3.400254
0.252                  0.9993924       -3.455153
0.256                  0.9993868       -3.510074
0.26                   0.9993818       -3.565019
0.264                  0.9993773        -3.61999
0.268                  0.9993734       -3.674989
0.272                  0.9993701       -3.730018
0.276                  0.9993673        -3.78508
0.28                   0.9993651       -3.840176
0.284                  0.9993636       -3.895308
0.288                  0.9993626        -3.95048
0.292                  0.9993623       -4.005693
0.296                  0.9993626       -4.060949
0.3                    0.9993636       -4.116253
0.304                  0.9993652       -4.171604
0.308                  0.9993675       -4.227007
0.312                  0.9993704       -4.282463
0.316                   0.999374       -4.337976
0.32                   0.9993783       -4.393548
0.324                  0.9993832       -4.449181
0.328                  0.9993888       -4.504879
0.332                  0.9993951       -4.560644
0.336                   0.999402       -4.616477
0.34                   0.9994095       -4.672384
0.344                  0.9994176       -4.728365
0.348                  0.9994265       -4.784422
0.352                  0.9994359       -4.840561
0.356                  0.9994459       -4.896783
0.36                   0.9994564        -4.95309
0.364                  0.9994675       -5.009484
0.368                  0.9994792        -5.06597
0.372                  0.9994915       -5.122548
0.376                  0.9995041       -5.179222
0.38                   0.9995172       -5.235994
0.384                  0.9995308       -5.292867
0.388                  0.9995448       -5.349842
0.392                  0.9995591       -5.406923
0.396                  0.9995739       -5.464111
0.4                    0.9995889       -5.521407
0.404                  0.9996042       -5.578816
0.408                  0.9996198       -5.636338
0.412                  0.9996356       -5.693975
0.416                  0.9996516       -5.751729
0.42                   0.9996678       -5.809602
0.424                  0.9996841       -5.867596
0.428                  0.9997003       -5.925712
0.432                  0.9997166       -5.983952
0.436                  0.9997327       -6.042316
0.44                   0.9997489       -6.100806
0.444                  0.9997651       -6.159423
0.448                   0.999781       -6.218169
0.452                  0.9997967       -6.277043
0.456                  0.9998121       -6.336047
0.46                   0.9998272       -6.395181
0.464                  0.9998421       -6.454445
0.468                  0.9998565       -6.513841
0.472                  0.9998706       -6.573368
0.476                   0.999884       -6.633027
0.48                    0.999897       -6.692817
0.484                  0.9999095       -6.752737
0.488                  0.9999211        -6.81279
0.492                  0.9999323       -6.872972
0.496                  0.9999427       -6.933284
0.5                    0.9999524       -6.993727
0.504                  0.9999614       -7.054296
0.508                  0.9999694       -7.114994
0.512                  0.9999766       -7.175819
0.516                  0.9999829       -7.236769
0.52                   0.9999883       -7.297843
0.524                  0.9999927       -7.359041
0.528                  0.9999961       -7.420359
0.532                  0.9999984       -7.481797
0.536                  0.9999997       -7.543355
0.54                           1       -7.605028
0.544                  0.9999991       -7.666816
0.548                  0.9999971       -7.728715
0.552                  0.9999939       -7.790727
0.556                  0.9999896       -7.852847
0.56                   0.9999842       -7.915073
0.564                  0.9999774       -7.977405
0.568                  0.9999696        -8.03984
0.572                  0.9999604       -8.102375
0.576                  0.9999501       -8.165006
0.58                   0.9999385       -8.227734
0.584                  0.9999259       -8.290554
0.588                   0.999912       -8.353466
0.592                  0.9998969       -8.416467
0.596                  0.9998806       -8.479557
0.6                    0.9998631       -8.542728
0.604                  0.9998445       -8.605983
0.608                  0.9998248       -8.669316
0.612                  0.9998039        -8.73273
0.616                   0.999782       -8.796218
0.62                   0.9997591        -8.85978
0.624                  0.9997352       -8.923414
0.628                  0.9997102       -8.987119
0.632                  0.9996843       -9.050894
0.636                  0.9996575       -9.114733
0.64                   0.9996298        -9.17864
0.644                  0.9996013       -9.242611
0.648                   0.999572       -9.306643
0.652                  0.9995421       -9.370738
0.656                  0.9995115       -9.434894
0.66                   0.9994802       -9.499112
0.664                  0.9994484       -9.563386
0.668                  0.9994161       -9.627722
0.672                  0.9993834       -9.692115
0.676                  0.9993503       -9.756568
0.68                    0.999317        -9.82108
0.684                  0.9992834        -9.88565
0.688                  0.9992495       -9.950281
0.692                  0.9992156       -10.01497
0.696                  0.9991817       -10.07973
0.7                    0.9991477       -10.14454
0.704                  0.9991139       -10.20942
0.708                  0.9990802       -10.27437
0.712                  0.9990468       -10.33938
0.716                  0.9990136       -10.40446
0.72                    0.998981       -10.46961
0.724                  0.9989487       -10.53484
0.728                  0.9989169       -10.60015
0.732                  0.9988857       -10.66553
0.736                  0.9988551         -10.731
0.74                   0.9988253       -10.79655
0.744                  0.9987962        -10.8622
0.748                   0.998768       -10.92794
0.752                  0.9987406       -10.99377
0.756                  0.9987143       -11.05971
0.76                   0.9986889       -11.12576
0.764                  0.9986646       -11.19191
0.768                  0.9986414       -11.25819
0.772                  0.9986194       -11.32458
0.776                  0.9985985        -11.3911
0.78                   0.9985789       -11.45776
0.784                  0.9985606       -11.52455
0.788                  0.9985435       -11.59149
0.792                  0.9985279       -11.65857
0.796                  0.9985135       -11.72581
0.8                    0.9985007       -11.79321
0.804                  0.9984891       -11.86078
0.808                  0.9984791       -11.92853
0.812                  0.9984704       -11.99645
0.816                  0.9984632       -12.06456
0.82                   0.9984575       -12.13287
0.824                  0.9984531       -12.20138
0.828                  0.9984502       -12.27009
0.832                  0.9984487       -12.33902
0.836                  0.9984486       -12.40817
0.84                   0.9984499       -12.47755
0.844                  0.9984525       -12.54716
0.848                  0.9984564       -12.61701
0.852                  0.9984616       -12.68711
0.856                  0.9984681       -12.75746
0.86                   0.9984757       -12.82808
0.864                  0.9984845       -12.89896
0.868                  0.9984944       -12.97012
0.872                  0.9985053       -13.04156
0.876                  0.9985171       -13.11328
0.88                   0.9985299       -13.18529
0.884                  0.9985435       -13.25761
0.888                  0.9985578       -13.33023
0.892                  0.9985727       -13.40315
0.896                  0.9985883       -13.47639
0.9                    0.9986043       -13.54995
0.904                  0.9986207       -13.62384
0.908                  0.9986375       -13.69805
0.912                  0.9986543        -13.7726
0.916                  0.9986714       -13.84749
0.92                   0.9986884       -13.92272
0.924                  0.9987054       -13.99829
0.928                  0.9987222       -14.07421
0.932                  0.9987385       -14.15049
0.936                  0.9987545       -14.22712
0.94                   0.9987698       -14.30411
0.944                  0.9987846       -14.38145
0.948                  0.9987986       -14.45917
0.952                  0.9988117       -14.53724
0.956                  0.9988238       -14.61568
0.96                   0.9988347       -14.69448
0.964                  0.9988445       -14.77365
0.968                  0.9988529       -14.85319
0.972                  0.9988598        -14.9331
0.976                  0.9988652       -15.01337
0.98                   0.9988688       -15.09401
0.984                  0.9988707       -15.17502
0.988                  0.9988707       -15.25639
0.992                  0.9988687       -15.33813
0.996                  0.9988646       -15.42022
1                      0.9988582       -15.50268
1.004                  0.9988497        -15.5855
1.008                  0.9988387       -15.66867
1.012                  0.9988252       -15.75219
1.016                  0.9988092       -15.83607
1.02                   0.9987905       -15.92029
1.024                  0.9987691       -16.00486
1.028                   0.998745       -16.08976
1.032                   0.998718       -16.17503
1.036                  0.9986882       -16.26059
1.04                   0.9986553       -16.34649
1.044                  0.9986195       -16.43271
1.048                  0.9985806       -16.51927
1.052                  0.9985387       -16.60615
1.056                  0.9984936        -16.6933
1.06                   0.9984455       -16.78081
1.064                   0.998394       -16.86859
1.068                  0.9983395       -16.95667
1.072                  0.9982819       -17.04505
1.076                  0.9982211       -17.13374
1.08                    0.998157       -17.22267
1.084                    0.99809        -17.3119
1.088                  0.9980197        -17.4014
1.092                  0.9979464       -17.49117
1.096                  0.9978702       -17.58125
1.1                    0.9977908       -17.67155
1.104                  0.9977085       -17.76209
1.108                  0.9976233        -17.8529
1.112                  0.9975354       -17.94399
1.116                  0.9974446       -18.03532
1.12                   0.9973512       -18.12687
1.124                  0.9972552        -18.2187
1.128                  0.9971565       -18.31073
1.132                  0.9970555       -18.40301
1.136                  0.9969523       -18.49553
1.14                   0.9968467       -18.58829
1.144                  0.9967391       -18.68127
1.148                  0.9966295       -18.77449
1.152                   0.996518       -18.86795
1.156                  0.9964048       -18.96163
1.16                   0.9962899       -19.05554
1.164                  0.9961735       -19.14969
1.168                  0.9960557       -19.24408
1.172                  0.9959368        -19.3387
1.176                  0.9958167       -19.43355
1.18                   0.9956956       -19.52866
1.184                  0.9955738         -19.624
1.188                  0.9954512        -19.7196
1.192                  0.9953282       -19.81545
1.196                  0.9952046       -19.91155
1.2                    0.9950809       -20.00792
1.204                  0.9949571       -20.10456
1.208                  0.9948332       -20.20148
1.212                  0.9947095       -20.29867
1.216                  0.9945862       -20.39616
1.22                   0.9944633       -20.49395
1.224                  0.9943409       -20.59205
1.228                  0.9942192       -20.69046
1.232                  0.9940984       -20.78919
1.236                  0.9939784       -20.88827
1.24                   0.9938596       -20.98769
1.244                  0.9937419       -21.08748
1.248                  0.9936253       -21.18763
1.252                  0.9935103       -21.28816
1.256                  0.9933967       -21.38909
1.26                   0.9932846       -21.49043
1.264                   0.993174       -21.59219
1.268                  0.9930652       -21.69439
1.272                  0.9929581       -21.79704
1.276                  0.9928529       -21.90015
1.28                   0.9927494       -22.00374
1.284                  0.9926478       -22.10783
1.288                  0.9925481       -22.21244
1.292                  0.9924503       -22.31757
1.296                  0.9923544       -22.42324
1.3                    0.9922605       -22.52948
1.304                  0.9921684       -22.63629
1.308                  0.9920782        -22.7437
1.312                  0.9919898       -22.85172
1.316                  0.9919033       -22.96037
1.32                   0.9918184       -23.06967
1.324                  0.9917352       -23.17963
1.328                  0.9916536       -23.29027
1.332                  0.9915735       -23.40162
1.336                  0.9914947       -23.51367
1.34                   0.9914173       -23.62646
1.344                  0.9913409          -23.74
1.348                  0.9912657       -23.85431
1.352                  0.9911912       -23.96941
1.356                  0.9911175       -24.08531
1.36                   0.9910443       -24.20202
1.364                  0.9909714       -24.31958
1.368                  0.9908988       -24.43798
1.372                  0.9908263       -24.55724
1.376                  0.9907533       -24.67739
1.38                     0.99068       -24.79845
1.384                   0.990606       -24.92041
1.388                   0.990531       -25.04329
1.392                   0.990455       -25.16712
1.396                  0.9903777        -25.2919
1.4                    0.9902985       -25.41765
1.404                  0.9902175       -25.54438
1.408                  0.9901345        -25.6721
1.412                  0.9900487       -25.80082
1.416                  0.9899605       -25.93056
1.42                   0.9898692       -26.06132
1.424                  0.9897746       -26.19312
1.428                  0.9896762       -26.32596
1.432                  0.9895742       -26.45985
1.436                  0.9894679        -26.5948
1.44                    0.989357       -26.73082
1.444                  0.9892416       -26.86791
1.448                  0.9891209       -27.00609
1.452                  0.9889948       -27.14535
1.456                  0.9888631       -27.28571
1.46                   0.9887255       -27.42715
1.464                  0.9885814       -27.56971
1.468                  0.9884309       -27.71336
1.472                  0.9882735       -27.85812
1.476                   0.988109       -28.00399
1.48                   0.9879369       -28.15097
1.484                  0.9877574       -28.29906
1.488                  0.9875696       -28.44826
1.492                  0.9873738       -28.59857
1.496                  0.9871695          -28.75
1.5                    0.9869564       -28.90253
1.504                  0.9867343       -29.05618
1.508                   0.986503       -29.21094
1.512                  0.9862622       -29.36679
1.516                   0.986012       -29.52375
1.52                   0.9857516       -29.68182
1.524                  0.9854813       -29.84098
1.528                   0.985201       -30.00123
1.532                    0.98491       -30.16258
1.536                  0.9846085       -30.32502
1.54                   0.9842964       -30.48854
1.544                  0.9839734       -30.65314
1.548                  0.9836395       -30.81882
1.552                  0.9832946       -30.98557
1.556                  0.9829383        -31.1534
1.56                   0.9825709       -31.32229
1.564                  0.9821922       -31.49224
1.568                  0.9818021       -31.66325
1.572                  0.9814005       -31.83533
1.576                  0.9809875       -32.00845
1.58                    0.980563       -32.18263
1.584                  0.9801271       -32.35785
1.588                  0.9796798       -32.53413
1.592                   0.979221       -32.71145
1.596                  0.9787508       -32.88982
1.6                    0.9782693       -33.06925
1.604                  0.9777764       -33.24971
1.608                  0.9772723       -33.43123
1.612                  0.9767572        -33.6138
1.616                  0.9762309       -33.79744
1.62                   0.9756935       -33.98213
1.624                  0.9751454       -34.16789
1.628                  0.9745866       -34.35471
1.632                  0.9740172       -34.54262
1.636                  0.9734373       -34.73161
1.64                   0.9728471        -34.9217
1.644                  0.9722468       -35.11289
1.648                  0.9716364       -35.30521
1.652                  0.9710161       -35.49864
1.656                  0.9703861       -35.69322
1.66                   0.9697468       -35.88896
1.664                  0.9690978       -36.08589
1.668                  0.9684399         -36.284
1.672                  0.9677728       -36.48332
1.676                   0.967097       -36.68388
1.68                   0.9664125       -36.88568
1.684                  0.9657192       -37.08878
1.688                  0.9650178       -37.29317
1.692                  0.9643081        -37.4989
1.696                  0.9635903       -37.70598
1.7                    0.9628645       -37.91446
1.704                   0.962131       -38.12435
1.708                  0.9613897        -38.3357
1.712                  0.9606408       -38.54853
1.716                  0.9598846       -38.76289
1.72                   0.9591207       -38.97881
1.724                  0.9583496       -39.19633
1.728                   0.957571        -39.4155
1.732                  0.9567853       -39.63634
1.736                  0.9559923       -39.85891
1.74                    0.955192       -40.08326
1.744                  0.9543844       -40.30942
1.748                  0.9535694       -40.53746
1.752                  0.9527469       -40.76741
1.756                  0.9519169       -40.99932
1.76                   0.9510793       -41.23326
1.764                  0.9502337       -41.46928
1.768                  0.9493803       -41.70742
1.772                  0.9485186       -41.94775
1.776                  0.9476486       -42.19032
1.78                   0.9467697        -42.4352
1.784                  0.9458819       -42.68243
1.788                  0.9449847       -42.93209
1.792                  0.9440779       -43.18423
1.796                   0.943161       -43.43893
1.8                    0.9422336       -43.69622
1.804                  0.9412952        -43.9562
1.808                  0.9403453       -44.21892
1.812                  0.9393836       -44.48443
1.816                  0.9384092       -44.75283
1.82                   0.9374217       -45.02416
1.824                  0.9364204        -45.2985
1.828                  0.9354047       -45.57591
1.832                  0.9343739       -45.85647
1.836                  0.9333273       -46.14023
1.84                   0.9322637       -46.42727
1.844                  0.9311829       -46.71767
1.848                  0.9300837       -47.01147
1.852                  0.9289653       -47.30877
1.856                  0.9278267       -47.60962
1.86                   0.9266673       -47.91409
1.864                  0.9254855       -48.22225
1.868                  0.9242809       -48.53417
1.872                  0.9230521       -48.84992
1.876                  0.9217983       -49.16956
1.88                   0.9205181       -49.49315
1.884                  0.9192105       -49.82079
1.888                  0.9178742       -50.15251
1.892                  0.9165084        -50.4884
1.896                  0.9151115        -50.8285
1.9                    0.9136823        -51.1729
1.904                  0.9122197       -51.52164
1.908                  0.9107223        -51.8748
1.912                  0.9091888       -52.23243
1.916                  0.9076178       -52.59461
1.92                   0.9060082       -52.96138
1.924                  0.9043583        -53.3328
1.928                   0.902667       -53.70895
1.932                  0.9009329       -54.08986
1.936                  0.8991543        -54.4756
1.94                     0.89733       -54.86624
1.944                  0.8954586       -55.26181
1.948                  0.8935385       -55.66239
1.952                  0.8915685       -56.06799
1.956                  0.8895469       -56.47872
1.96                   0.8874725       -56.89458
1.964                  0.8853437       -57.31566
1.968                   0.883159       -57.74199
1.972                  0.8809171       -58.17363
1.976                  0.8786166        -58.6106
1.98                   0.8762558       -59.05299
1.984                  0.8738336       -59.50082
1.988                  0.8713483       -59.95415
1.992                  0.8687989         -60.413
1.996                  0.8661836       -60.87746
2                      0.8635013       -61.34754
2.004                  0.8607505        -61.8233
2.008                    0.85793       -62.30478
2.012                  0.8550383       -62.79202
2.016                  0.8520742       -63.28507
2.02                   0.8490366       -63.78398
2.024                  0.8459242       -64.28878
2.028                  0.8427357       -64.79952
2.032                  0.8394699       -65.31625
2.036                  0.8361259       -65.83902
2.04                   0.8327023       -66.36785
2.044                  0.8291982       -66.90282
2.048                  0.8256127       -67.44395
2.052                  0.8219444       -67.99132
2.056                  0.8181927       -68.54493
2.06                   0.8143566       -69.10486
2.064                  0.8104354       -69.67117
2.068                  0.8064279        -70.2439
2.072                  0.8023338       -70.82309
2.076                  0.7981518       -71.40882
2.08                   0.7938819       -72.00113
2.084                  0.7895229       -72.60009
2.088                  0.7850746       -73.20576
2.092                  0.7805363       -73.81821
2.096                  0.7759076       -74.43749
2.1                    0.7711884       -75.06368
2.104                  0.7663778       -75.69685
2.108                  0.7614759       -76.33709
2.112                  0.7564825       -76.98445
2.116                  0.7513971       -77.63905
2.12                   0.7462202       -78.30097
2.124                  0.7409512       -78.97027
2.128                  0.7355905       -79.64709
2.132                   0.730138       -80.33153
2.136                  0.7245941       -81.02367
2.14                   0.7189589       -81.72363
2.144                  0.7132327       -82.43157
2.148                   0.707416       -83.14756
2.152                  0.7015093       -83.87177
2.156                   0.695513       -84.60433
2.16                   0.6894278       -85.34541
2.164                  0.6832545       -86.09515
2.168                  0.6769938       -86.85371
2.172                  0.6706464        -87.6213
2.176                  0.6642136       -88.39807
2.18                   0.6576961       -89.18426
2.184                  0.6510952       -89.98005
2.188                  0.6444121       -90.78568
2.192                   0.637648        -91.6014
2.196                  0.6308045       -92.42744
2.2                    0.6238827       -93.26407
2.204                  0.6168845       -94.11157
2.208                  0.6098114       -94.97029
2.212                  0.6026654       -95.84049
2.216                  0.5954481       -96.72254
2.22                   0.5881616       -97.61677
2.224                   0.580808       -98.52362
2.228                  0.5733895       -99.44344
2.232                  0.5659083       -100.3767
2.236                  0.5583669       -101.3239
2.24                   0.5507679       -102.2854
2.244                  0.5431139       -103.2618
2.248                  0.5354078       -104.2537
2.252                  0.5276524       -105.2617
2.256                   0.519851       -106.2863
2.26                   0.5120065       -107.3282
2.264                  0.5041228       -108.3882
2.268                   0.496203        -109.467
2.272                   0.488251       -110.5655
2.276                  0.4802707       -111.6844
2.28                   0.4722662       -112.8246
2.284                  0.4642417       -113.9873
2.288                  0.4562019       -115.1733
2.292                  0.4481514       -116.3838
2.296                  0.4400952         -117.62
2.3                    0.4320385       -118.8831
2.304                  0.4239867       -120.1744
2.308                  0.4159458       -121.4954
2.312                  0.4079217       -122.8475
2.316                   0.399921       -124.2323
2.32                   0.3919502       -125.6515
2.324                  0.3840167       -127.1069
2.328                  0.3761278       -128.6003
2.332                  0.3682916       -130.1337
2.336                  0.3605164       -131.7091
2.34                   0.3528113       -133.3289
2.344                  0.3451853       -134.9951
2.348                  0.3376488       -136.7102
2.352                   0.330212       -138.4766