! TOUCHSTONE file generated by CST MICROWAVE STUDIO
! Date and time: Thu May 12 17:57:35 2022
! Project name: AppElm_antenne_dipole_FR4.cst
! Parameters = {L=38.8; e=0.035; f=2.45e+09; h=1.6; i=0.8; l1=4; lambda=122.449; ls=30; wl=1.7; ws=88}
! Header version: 2018
! Port assignment regex: !\s*Touchstone port\s*([0-9]+)\s*=\s*(CST MWS port|CST DS port)\s*([0-9]+|Zmin|Zmax)\s*\(\"(.*)\"\)(\s*mode\s*([0-9]+))?.*
! Touchstone port assignment:
! Touchstone port 1 = CST MWS port 1 ("")
# GHz S MA R 50
0                       0.999914              -0
0.004                  0.9999138     -0.05501682
0.008                   0.999913      -0.1100331
0.012                  0.9999117      -0.1650484
0.016                    0.99991       -0.220062
0.02                   0.9999078      -0.2750736
0.024                   0.999905      -0.3300826
0.028                  0.9999017      -0.3850885
0.032                  0.9998979      -0.4400909
0.036                  0.9998938      -0.4950891
0.04                   0.9998891      -0.5500827
0.044                  0.9998839      -0.6050712
0.048                  0.9998784      -0.6600542
0.052                  0.9998722      -0.7150313
0.056                  0.9998658       -0.770002
0.06                   0.9998587      -0.8249659
0.064                  0.9998515      -0.8799225
0.068                  0.9998436      -0.9348716
0.072                  0.9998355      -0.9898127
0.076                  0.9998269       -1.044745
0.08                    0.999818       -1.099669
0.084                  0.9998085       -1.154585
0.088                   0.999799       -1.209491
0.092                   0.999789       -1.264387
0.096                  0.9997786       -1.319274
0.1                     0.999768       -1.374151
0.104                  0.9997571       -1.429018
0.108                   0.999746       -1.483875
0.112                  0.9997346       -1.538722
0.116                  0.9997229       -1.593559
0.12                    0.999711       -1.648385
0.124                  0.9996989       -1.703201
0.128                  0.9996868       -1.758007
0.132                  0.9996744       -1.812802
0.136                  0.9996619       -1.867588
0.14                   0.9996492       -1.922365
0.144                  0.9996365       -1.977132
0.148                  0.9996237       -2.031889
0.152                  0.9996109       -2.086638
0.156                  0.9995981       -2.141379
0.16                   0.9995853       -2.196112
0.164                  0.9995726       -2.250837
0.168                  0.9995598       -2.305556
0.172                  0.9995471       -2.360268
0.176                  0.9995347       -2.414975
0.18                   0.9995221       -2.469678
0.184                  0.9995099       -2.524377
0.188                  0.9994979       -2.579072
0.192                  0.9994859       -2.633766
0.196                  0.9994743       -2.688459
0.2                    0.9994629       -2.743152
0.204                  0.9994518       -2.797846
0.208                   0.999441       -2.852542
0.212                  0.9994305       -2.907243
0.216                  0.9994204       -2.961949
0.22                   0.9994107       -3.016661
0.224                  0.9994013       -3.071382
0.228                  0.9993924       -3.126112
0.232                   0.999384       -3.180853
0.236                   0.999376       -3.235608
0.24                   0.9993684       -3.290377
0.244                  0.9993615       -3.345163
0.248                   0.999355       -3.399968
0.252                  0.9993491       -3.454793
0.256                  0.9993437       -3.509641
0.26                   0.9993389       -3.564513
0.264                  0.9993348       -3.619411
0.268                  0.9993312        -3.67434
0.272                  0.9993284         -3.7293
0.276                  0.9993261       -3.784293
0.28                   0.9993245       -3.839322
0.284                  0.9993235        -3.89439
0.288                  0.9993233       -3.949498
0.292                  0.9993238        -4.00465
0.296                  0.9993248       -4.059848
0.3                    0.9993267       -4.115095
0.304                  0.9993292       -4.170392
0.308                  0.9993324       -4.225744
0.312                  0.9993363       -4.281153
0.316                  0.9993411        -4.33662
0.32                   0.9993463        -4.39215
0.324                  0.9993524       -4.447743
0.328                  0.9993592       -4.503405
0.332                  0.9993665       -4.559137
0.336                  0.9993746       -4.614942
0.34                   0.9993834       -4.670823
0.344                  0.9993929       -4.726781
0.348                  0.9994028       -4.782822
0.352                  0.9994134       -4.838946
0.356                  0.9994247       -4.895157
0.36                   0.9994366       -4.951456
0.364                  0.9994489       -5.007848
0.368                  0.9994619       -5.064334
0.372                  0.9994753       -5.120917
0.376                  0.9994893       -5.177598
0.38                   0.9995037       -5.234382
0.384                  0.9995185        -5.29127
0.388                  0.9995337       -5.348264
0.392                  0.9995493       -5.405367
0.396                  0.9995652       -5.462581
0.4                    0.9995815       -5.519907
0.404                  0.9995979       -5.577348
0.408                  0.9996146       -5.634907
0.412                  0.9996314       -5.692584
0.416                  0.9996485       -5.750381
0.42                   0.9996656         -5.8083
0.424                  0.9996828       -5.866342
0.428                  0.9996999       -5.924509
0.432                   0.999717       -5.982801
0.436                   0.999734       -6.041222
0.44                   0.9997508       -6.099771
0.444                  0.9997677       -6.158447
0.448                  0.9997841       -6.217255
0.452                  0.9998004       -6.276193
0.456                  0.9998163       -6.335262
0.46                    0.999832       -6.394462
0.464                  0.9998472       -6.453796
0.468                  0.9998619        -6.51326
0.472                   0.999876       -6.572858
0.476                  0.9998898       -6.632586
0.48                   0.9999029       -6.692447
0.484                  0.9999152       -6.752439
0.488                   0.999927       -6.812563
0.492                  0.9999379       -6.872816
0.496                  0.9999482       -6.933199
0.5                    0.9999576        -6.99371
0.504                  0.9999662        -7.05435
0.508                   0.999974       -7.115116
0.512                  0.9999808       -7.176007
0.516                  0.9999866       -7.237024
0.52                   0.9999914       -7.298162
0.524                  0.9999952       -7.359421
0.528                  0.9999978         -7.4208
0.532                  0.9999995       -7.482297
0.536                          1       -7.543909
0.54                   0.9999993       -7.605636
0.544                  0.9999976       -7.667475
0.548                  0.9999946       -7.729424
0.552                  0.9999904        -7.79148
0.556                   0.999985       -7.853643
0.56                   0.9999785       -7.915907
0.564                  0.9999706       -7.978275
0.568                  0.9999615       -8.040741
0.572                  0.9999513       -8.103304
0.576                  0.9999398       -8.165959
0.58                    0.999927       -8.228708
0.584                  0.9999131       -8.291548
0.588                  0.9998978       -8.354473
0.592                  0.9998814       -8.417483
0.596                  0.9998638       -8.480576
0.6                     0.999845        -8.54375
0.604                   0.999825       -8.607002
0.608                  0.9998039        -8.67033
0.612                  0.9997817       -8.733731
0.616                  0.9997585       -8.797205
0.62                   0.9997342       -8.860748
0.624                  0.9997089       -8.924359
0.628                  0.9996826       -8.988037
0.632                  0.9996555       -9.051778
0.636                  0.9996274       -9.115583
0.64                   0.9995984       -9.179451
0.644                  0.9995688       -9.243378
0.648                  0.9995384       -9.307365
0.652                  0.9995073       -9.371409
0.656                  0.9994756       -9.435512
0.66                   0.9994433        -9.49967
0.664                  0.9994104       -9.563886
0.668                  0.9993772       -9.628158
0.672                  0.9993436       -9.692485
0.676                  0.9993097       -9.756867
0.68                   0.9992755       -9.821308
0.684                  0.9992411       -9.885803
0.688                  0.9992066       -9.950357
0.692                  0.9991721       -10.01497
0.696                  0.9991376       -10.07964
0.7                    0.9991032       -10.14437
0.704                  0.9990689       -10.20917
0.708                   0.999035       -10.27403
0.712                  0.9990013       -10.33895
0.716                   0.998968       -10.40394
0.72                   0.9989351       -10.46901
0.724                  0.9989027       -10.53415
0.728                   0.998871       -10.59936
0.732                    0.99884       -10.66465
0.736                  0.9988096       -10.73003
0.74                     0.99878        -10.7955
0.744                  0.9987513       -10.86105
0.748                  0.9987235        -10.9267
0.752                  0.9986965       -10.99245
0.756                  0.9986708        -11.0583
0.76                   0.9986459       -11.12426
0.764                  0.9986224       -11.19033
0.768                     0.9986       -11.25652
0.772                  0.9985787       -11.32284
0.776                  0.9985587       -11.38928
0.78                   0.9985401       -11.45586
0.784                  0.9985228       -11.52258
0.788                  0.9985069       -11.58944
0.792                  0.9984923       -11.65646
0.796                  0.9984792       -11.72364
0.8                    0.9984676       -11.79098
0.804                  0.9984573       -11.85849
0.808                  0.9984487       -11.92618
0.812                  0.9984414       -11.99405
0.816                  0.9984356       -12.06212
0.82                   0.9984312       -12.13038
0.824                  0.9984284       -12.19885
0.828                   0.998427       -12.26752
0.832                  0.9984271       -12.33642
0.836                  0.9984286       -12.40554
0.84                   0.9984314        -12.4749
0.844                  0.9984357       -12.54449
0.848                  0.9984412       -12.61433
0.852                   0.998448       -12.68442
0.856                  0.9984561       -12.75477
0.86                   0.9984653       -12.82538
0.864                  0.9984758       -12.89627
0.868                  0.9984874       -12.96743
0.872                  0.9984997       -13.03888
0.876                  0.9985133       -13.11062
0.88                   0.9985275       -13.18265
0.884                  0.9985426       -13.25499
0.888                  0.9985583       -13.32764
0.892                  0.9985748        -13.4006
0.896                  0.9985918       -13.47387
0.9                    0.9986093       -13.54747
0.904                  0.9986271        -13.6214
0.908                  0.9986451       -13.69566
0.912                  0.9986634       -13.77026
0.916                  0.9986816        -13.8452
0.92                   0.9986998       -13.92049
0.924                  0.9987178       -13.99612
0.928                  0.9987356       -14.07211
0.932                  0.9987529       -14.14845
0.936                  0.9987698       -14.22515
0.94                    0.998786       -14.30221
0.944                  0.9988016       -14.37963
0.948                  0.9988163       -14.45741
0.952                    0.99883       -14.53556
0.956                  0.9988426       -14.61407
0.96                   0.9988541       -14.69296
0.964                  0.9988643       -14.77221
0.968                   0.998873       -14.85182
0.972                  0.9988801       -14.93181
0.976                  0.9988857       -15.01216
0.98                   0.9988895       -15.09288
0.984                  0.9988913       -15.17397
0.988                  0.9988912       -15.25542
0.992                  0.9988891       -15.33723
0.996                  0.9988847       -15.41941
1                      0.9988781       -15.50194
1.004                  0.9988691       -15.58483
1.008                  0.9988576       -15.66808
1.012                  0.9988437       -15.75167
1.016                   0.998827       -15.83562
1.02                   0.9988077        -15.9199
1.024                  0.9987856       -16.00454
1.028                  0.9987606       -16.08951
1.032                  0.9987328       -16.17481
1.036                   0.998702       -16.26043
1.04                   0.9986682       -16.34641
1.044                  0.9986313       -16.43269
1.048                  0.9985913       -16.51927
1.052                  0.9985483       -16.60617
1.056                   0.998502       -16.69338
1.06                   0.9984525       -16.78089
1.064                  0.9983999       -16.86873
1.068                  0.9983442       -16.95681
1.072                  0.9982851       -17.04522
1.076                  0.9982229        -17.1339
1.08                   0.9981575       -17.22289
1.084                   0.998089       -17.31212
1.088                  0.9980174       -17.40162
1.092                  0.9979427       -17.49137
1.096                   0.997865       -17.58139
1.1                    0.9977842       -17.67168
1.104                  0.9977005       -17.76225
1.108                  0.9976139       -17.85304
1.112                  0.9975245       -17.94407
1.116                  0.9974323       -18.03538
1.12                   0.9973375        -18.1269
1.124                  0.9972401       -18.21862
1.128                  0.9971402       -18.31063
1.132                  0.9970379       -18.40286
1.136                  0.9969334       -18.49532
1.14                   0.9968268       -18.58801
1.144                   0.996718       -18.68092
1.148                  0.9966072       -18.77407
1.152                  0.9964948       -18.86744
1.156                  0.9963805       -18.96104
1.16                   0.9962647       -19.05487
1.164                  0.9961475       -19.14892
1.168                  0.9960289       -19.24321
1.172                  0.9959092       -19.33773
1.176                  0.9957885       -19.43248
1.18                   0.9956668       -19.52748
1.184                  0.9955445       -19.62271
1.188                  0.9954216        -19.7182
1.192                  0.9952983       -19.81393
1.196                  0.9951745       -19.90992
1.2                    0.9950507       -20.00616
1.204                  0.9949268       -20.10268
1.208                  0.9948031       -20.19947
1.212                  0.9946796       -20.29655
1.216                  0.9945565       -20.39391
1.22                    0.994434       -20.49157
1.224                  0.9943121       -20.58954
1.228                   0.994191       -20.68782
1.232                  0.9940709       -20.78643
1.236                  0.9939517       -20.88538
1.24                   0.9938337       -20.98467
1.244                   0.993717       -21.08433
1.248                  0.9936017       -21.18435
1.252                  0.9934878       -21.28477
1.256                  0.9933754       -21.38557
1.26                   0.9932648       -21.48679
1.264                  0.9931558       -21.58843
1.268                  0.9930486       -21.69052
1.272                  0.9929431       -21.79305
1.276                  0.9928397       -21.89605
1.28                   0.9927382       -21.99954
1.284                  0.9926385       -22.10353
1.288                  0.9925408       -22.20803
1.292                  0.9924451       -22.31307
1.296                  0.9923515       -22.41865
1.3                    0.9922599        -22.5248
1.304                  0.9921702       -22.63153
1.308                  0.9920824       -22.73886
1.312                  0.9919965        -22.8468
1.316                  0.9919126       -22.95539
1.32                   0.9918303       -23.06462
1.324                  0.9917498       -23.17452
1.328                   0.991671       -23.28511
1.332                  0.9915935       -23.39641
1.336                  0.9915177       -23.50842
1.34                   0.9914429       -23.62118
1.344                  0.9913695       -23.73469
1.348                  0.9912971       -23.84898
1.352                  0.9912255       -23.96405
1.356                  0.9911547       -24.07994
1.36                   0.9910845       -24.19665
1.364                  0.9910146        -24.3142
1.368                  0.9909449       -24.43261
1.372                  0.9908752       -24.55189
1.376                  0.9908051       -24.67206
1.38                   0.9907348       -24.79313
1.384                  0.9906637       -24.91512
1.388                  0.9905916       -25.03805
1.392                  0.9905184       -25.16192
1.396                  0.9904438       -25.28675
1.4                    0.9903675       -25.41255
1.404                  0.9902893       -25.53933
1.408                  0.9902087       -25.66712
1.412                  0.9901258       -25.79591
1.416                  0.9900401       -25.92571
1.42                   0.9899512       -26.05656
1.424                  0.9898591       -26.18843
1.428                  0.9897631       -26.32136
1.432                  0.9896633       -26.45534
1.436                  0.9895593       -26.59039
1.44                   0.9894506        -26.7265
1.444                  0.9893371        -26.8637
1.448                  0.9892184       -27.00198
1.452                  0.9890943       -27.14135
1.456                  0.9889644       -27.28181
1.46                   0.9888285       -27.42337
1.464                  0.9886861       -27.56603
1.468                  0.9885372        -27.7098
1.472                  0.9883812       -27.85468
1.476                  0.9882179       -28.00066
1.48                   0.9880473       -28.14776
1.484                  0.9878688       -28.29597
1.488                  0.9876823       -28.44529
1.492                  0.9874874       -28.59572
1.496                  0.9872839       -28.74726
1.5                    0.9870716       -28.89992
1.504                  0.9868502       -29.05367
1.508                  0.9866195       -29.20854
1.512                  0.9863794       -29.36451
1.516                  0.9861294       -29.52159
1.52                   0.9858696       -29.67975
1.524                  0.9855995       -29.83902
1.528                  0.9853193       -29.99938
1.532                  0.9850285       -30.16083
1.536                  0.9847271       -30.32336
1.54                   0.9844149       -30.48697
1.544                  0.9840917       -30.65166
1.548                  0.9837576       -30.81742
1.552                  0.9834124       -30.98425
1.556                   0.983056       -31.15215
1.56                   0.9826882       -31.32111
1.564                  0.9823091       -31.49113
1.568                  0.9819184       -31.66219
1.572                  0.9815166       -31.83432
1.576                  0.9811031       -32.00749
1.58                   0.9806783        -32.1817
1.584                  0.9802417       -32.35696
1.588                  0.9797939       -32.53327
1.592                  0.9793345       -32.71062
1.596                  0.9788637         -32.889
1.6                    0.9783816       -33.06844
1.604                  0.9778883        -33.2489
1.608                  0.9773836       -33.43042
1.612                  0.9768679       -33.61298
1.616                  0.9763412       -33.79659
1.62                   0.9758035       -33.98126
1.624                   0.975255       -34.16698
1.628                   0.974696       -34.35377
1.632                  0.9741262       -34.54163
1.636                  0.9735462       -34.73057
1.64                   0.9729558       -34.92059
1.644                  0.9723553       -35.11173
1.648                   0.971745       -35.30397
1.652                  0.9711251       -35.49732
1.656                  0.9704953       -35.69182
1.66                   0.9698561       -35.88747
1.664                  0.9692078       -36.08429
1.668                  0.9685504        -36.2823
1.672                  0.9678841       -36.48152
1.676                  0.9672091       -36.68196
1.68                   0.9665254       -36.88366
1.684                  0.9658334       -37.08662
1.688                  0.9651331        -37.2909
1.692                  0.9644248       -37.49649
1.696                  0.9637086       -37.70344
1.7                    0.9629847       -37.91178
1.704                   0.962253       -38.12153
1.708                  0.9615138       -38.33274
1.712                  0.9607673       -38.54543
1.716                  0.9600133       -38.75964
1.72                   0.9592521       -38.97541
1.724                  0.9584839       -39.19278
1.728                  0.9577084        -39.4118
1.732                  0.9569258       -39.63249
1.736                  0.9561363       -39.85492
1.74                   0.9553395       -40.07912
1.744                  0.9545357       -40.30513
1.748                  0.9537247       -40.53303
1.752                  0.9529066       -40.76282
1.756                   0.952081       -40.99461
1.76                   0.9512479       -41.22841
1.764                  0.9504073        -41.4643
1.768                  0.9495589       -41.70231
1.772                  0.9487025       -41.94252
1.776                  0.9478379       -42.18497
1.78                   0.9469648       -42.42974
1.784                  0.9460828       -42.67687
1.788                  0.9451919       -42.92644
1.792                  0.9442913        -43.1785
1.796                   0.943381        -43.4331
1.8                    0.9424601       -43.69034
1.804                  0.9415287       -43.95025
1.808                  0.9405859       -44.21291
1.812                  0.9396315       -44.47839
1.816                  0.9386645       -44.74676
1.82                   0.9376846       -45.01807
1.824                  0.9366913        -45.2924
1.828                  0.9356834       -45.56982
1.832                  0.9346608       -45.85039
1.836                  0.9336222       -46.13419
1.84                   0.9325672       -46.42128
1.844                   0.931495       -46.71173
1.848                  0.9304045       -47.00562
1.852                  0.9292949         -47.303
1.856                  0.9281653       -47.60395
1.86                   0.9270149       -47.90854
1.864                  0.9258425       -48.21684
1.868                  0.9246471       -48.52891
1.872                  0.9234277       -48.84483
1.876                  0.9221833       -49.16467
1.88                   0.9209127       -49.48847
1.884                  0.9196147       -49.81632
1.888                  0.9182881       -50.14829
1.892                   0.916932       -50.48443
1.896                   0.915545       -50.82481
1.9                    0.9141256       -51.16952
1.904                  0.9126728       -51.51858
1.908                  0.9111853       -51.87207
1.912                  0.9096617       -52.23007
1.916                  0.9081006       -52.59262
1.92                   0.9065007       -52.95979
1.924                  0.9048608       -53.33163
1.928                  0.9031793       -53.70821
1.932                  0.9014549       -54.08959
1.936                  0.8996861       -54.47581
1.94                   0.8978716       -54.86694
1.944                  0.8960097       -55.26304
1.948                  0.8940993       -55.66414
1.952                  0.8921388       -56.07033
1.956                  0.8901266       -56.48163
1.96                   0.8880615        -56.8981
1.964                  0.8859419        -57.3198
1.968                  0.8837664       -57.74677
1.972                  0.8815335       -58.17908
1.976                  0.8792418       -58.61676
1.98                   0.8768898       -59.05986
1.984                  0.8744763       -59.50841
1.988                  0.8719995        -59.9625
1.992                  0.8694582       -60.42214
1.996                  0.8668511       -60.88738
2                      0.8641767        -61.3583
2.004                  0.8614338       -61.83489
2.008                  0.8586209       -62.31723
2.012                  0.8557367       -62.80537
2.016                  0.8527799       -63.29933
2.02                   0.8497493       -63.79916
2.024                  0.8466438       -64.30491
2.028                  0.8434619       -64.81665
2.032                  0.8402026       -65.33437
2.036                  0.8368649       -65.85814
2.04                   0.8334474       -66.38803
2.044                  0.8299491       -66.92406
2.048                  0.8263691       -67.46628
2.052                  0.8227063       -68.01474
2.056                  0.8189598       -68.56951
2.06                   0.8151287       -69.13059
2.064                  0.8112121       -69.69807
2.068                  0.8072091         -70.272
2.072                  0.8031191       -70.85242
2.076                  0.7989412        -71.4394
2.08                   0.7946749       -72.03299
2.084                  0.7903196       -72.63325
2.088                  0.7858746       -73.24024
2.092                  0.7813395       -73.85401
2.096                  0.7767136       -74.47467
2.1                    0.7719969       -75.10226
2.104                  0.7671888       -75.73685
2.108                   0.762289       -76.37853
2.112                  0.7572974       -77.02739
2.116                  0.7522139       -77.68348
2.12                   0.7470382       -78.34692
2.124                  0.7417706       -79.01779
2.128                  0.7364109       -79.69619
2.132                  0.7309592       -80.38224
2.136                  0.7254158       -81.07602
2.14                    0.719781       -81.77766
2.144                  0.7140551       -82.48728
2.148                  0.7082383       -83.20502
2.152                  0.7023314       -83.93099
2.156                  0.6963348       -84.66535
2.16                    0.690249       -85.40827
2.164                  0.6840749       -86.15987
2.168                  0.6778134       -86.92034
2.172                   0.671465       -87.68986
2.176                  0.6650308       -88.46862
2.18                   0.6585122       -89.25681
2.184                  0.6519098       -90.05466
2.188                  0.6452251        -90.8624
2.192                  0.6384593       -91.68025
2.196                   0.631614       -92.50846
2.2                    0.6246903       -93.34733
2.204                  0.6176902       -94.19712
2.208                  0.6106152       -95.05812
2.212                   0.603467       -95.93067
2.216                  0.5962477       -96.81514
2.22                    0.588959       -97.71185
2.224                  0.5816033       -98.62122
2.228                  0.5741827       -99.54362
2.232                  0.5666994       -100.4795
2.236                  0.5591559       -101.4294
2.24                   0.5515549       -102.3936
2.244                   0.543899       -103.3729
2.248                  0.5361911       -104.3677
2.252                  0.5284341       -105.3785
2.256                  0.5206311       -106.4061
2.26                   0.5127853       -107.4512
2.264                  0.5049003       -108.5143
2.268                  0.4969795       -109.5964
2.272                  0.4890268       -110.6981
2.276                  0.4810461       -111.8203
2.28                   0.4730413       -112.9641
2.284                  0.4650171       -114.1302
2.288                  0.4569778       -115.3199
2.292                  0.4489281        -116.534
2.296                  0.4408733        -117.774
2.3                    0.4328183       -119.0409
2.304                  0.4247689       -120.3362
2.308                  0.4167309       -121.6612
2.312                  0.4087103       -123.0174
2.316                  0.4007136       -124.4063
2.32                   0.3927476       -125.8298
2.324                  0.3848195       -127.2894
2.328                  0.3769368       -128.7872
2.332                  0.3691076        -130.325
2.336                  0.3613404       -131.9049
2.34                    0.353644       -133.5291
2.344                  0.3460278       -135.1998
2.348                   0.338502       -136.9194
2.352                  0.3310769       -138.6902