! TOUCHSTONE file generated by CST MICROWAVE STUDIO
! Date and time: Thu May 12 17:57:30 2022
! Project name: AppElm_antenne_dipole_FR4.cst
! Parameters = {L=38.8; e=0.035; f=2.45e+09; h=1.6; i=0.8; l1=4; lambda=122.449; ls=30; wl=1.7; ws=64}
! Header version: 2018
! Port assignment regex: !\s*Touchstone port\s*([0-9]+)\s*=\s*(CST MWS port|CST DS port)\s*([0-9]+|Zmin|Zmax)\s*\(\"(.*)\"\)(\s*mode\s*([0-9]+))?.*
! Touchstone port assignment:
! Touchstone port 1 = CST MWS port 1 ("")
# GHz S MA R 50
0                      0.9979459              -0
0.004                  0.9979474     -0.05103519
0.008                  0.9979523      -0.1020812
0.012                  0.9979602      -0.1531489
0.016                  0.9979713      -0.2042489
0.02                   0.9979856       -0.255392
0.024                  0.9980028      -0.3065887
0.028                  0.9980231      -0.3578493
0.032                  0.9980464      -0.4091839
0.036                  0.9980724      -0.4606027
0.04                   0.9981015      -0.5121152
0.044                  0.9981331       -0.563731
0.048                  0.9981674       -0.615459
0.052                  0.9982042      -0.6673085
0.056                  0.9982432      -0.7192875
0.06                   0.9982847      -0.7714043
0.064                  0.9983282      -0.8236665
0.068                  0.9983739      -0.8760815
0.072                  0.9984213      -0.9286559
0.076                  0.9984705      -0.9813963
0.08                   0.9985212       -1.034309
0.084                  0.9985734       -1.087398
0.088                  0.9986269       -1.140669
0.092                  0.9986812       -1.194128
0.096                  0.9987366       -1.247776
0.1                    0.9987928       -1.301618
0.104                  0.9988494       -1.355656
0.108                  0.9989065       -1.409893
0.112                  0.9989639        -1.46433
0.116                  0.9990212       -1.518968
0.12                   0.9990783       -1.573808
0.124                  0.9991352       -1.628849
0.128                  0.9991916       -1.684092
0.132                  0.9992472       -1.739534
0.136                  0.9993021       -1.795174
0.14                    0.999356       -1.851011
0.144                  0.9994085        -1.90704
0.148                  0.9994599       -1.963258
0.152                  0.9995097       -2.019663
0.156                  0.9995578       -2.076248
0.16                   0.9996041       -2.133011
0.164                  0.9996484       -2.189944
0.168                  0.9996905       -2.247043
0.172                  0.9997306       -2.304301
0.176                  0.9997682       -2.361712
0.18                   0.9998033       -2.419268
0.184                   0.999836       -2.476962
0.188                  0.9998657       -2.534787
0.192                  0.9998928       -2.592734
0.196                  0.9999169       -2.650795
0.2                    0.9999382       -2.708963
0.204                  0.9999564       -2.767226
0.208                  0.9999714       -2.825578
0.212                  0.9999834       -2.884008
0.216                  0.9999921       -2.942508
0.22                   0.9999977       -3.001066
0.224                          1       -3.059676
0.228                  0.9999991       -3.118325
0.232                  0.9999948       -3.177006
0.236                  0.9999875       -3.235708
0.24                   0.9999768       -3.294422
0.244                  0.9999631       -3.353138
0.248                   0.999946       -3.411847
0.252                  0.9999259       -3.470539
0.256                  0.9999028       -3.529206
0.26                   0.9998766       -3.587838
0.264                  0.9998476       -3.646428
0.268                  0.9998156       -3.704965
0.272                  0.9997811       -3.763442
0.276                  0.9997438       -3.821852
0.28                    0.999704       -3.880187
0.284                  0.9996618       -3.938439
0.288                  0.9996175       -3.996602
0.292                  0.9995708       -4.054669
0.296                  0.9995223       -4.112634
0.3                    0.9994718       -4.170492
0.304                  0.9994196       -4.228238
0.308                   0.999366       -4.285868
0.312                  0.9993108       -4.343376
0.316                  0.9992545        -4.40076
0.32                   0.9991972       -4.458016
0.324                   0.999139       -4.515142
0.328                    0.99908       -4.572138
0.332                  0.9990205       -4.628999
0.336                  0.9989607       -4.685728
0.34                   0.9989008       -4.742321
0.344                  0.9988409       -4.798781
0.348                  0.9987811        -4.85511
0.352                  0.9987219       -4.911306
0.356                  0.9986631       -4.967374
0.36                   0.9986051       -5.023316
0.364                   0.998548       -5.079135
0.368                  0.9984921       -5.134835
0.372                  0.9984375       -5.190421
0.376                  0.9983844       -5.245898
0.38                   0.9983328       -5.301271
0.384                   0.998283       -5.356547
0.388                  0.9982351       -5.411732
0.392                  0.9981894       -5.466833
0.396                  0.9981458       -5.521859
0.4                    0.9981047       -5.576814
0.404                   0.998066       -5.631712
0.408                  0.9980299       -5.686559
0.412                  0.9979966       -5.741364
0.416                   0.997966       -5.796139
0.42                   0.9979384       -5.850891
0.424                  0.9979139       -5.905631
0.428                  0.9978925       -5.960372
0.432                  0.9978741       -6.015124
0.436                   0.997859       -6.069896
0.44                   0.9978472       -6.124702
0.444                  0.9978388       -6.179551
0.448                  0.9978337       -6.234456
0.452                  0.9978319       -6.289429
0.456                  0.9978336       -6.344481
0.46                   0.9978384       -6.399625
0.464                  0.9978467       -6.454871
0.468                  0.9978584       -6.510231
0.472                  0.9978733       -6.565718
0.476                  0.9978914       -6.621343
0.48                   0.9979128       -6.677117
0.484                  0.9979373       -6.733052
0.488                  0.9979647       -6.789158
0.492                  0.9979952       -6.845447
0.496                  0.9980287       -6.901928
0.5                    0.9980649       -6.958612
0.504                  0.9981035        -7.01551
0.508                  0.9981449        -7.07263
0.512                  0.9981886       -7.129982
0.516                  0.9982346       -7.187574
0.52                   0.9982827       -7.245415
0.524                  0.9983328       -7.303514
0.528                  0.9983846       -7.361876
0.532                  0.9984381       -7.420508
0.536                  0.9984931       -7.479418
0.54                   0.9985493       -7.538612
0.544                  0.9986067       -7.598093
0.548                  0.9986651       -7.657868
0.552                  0.9987241        -7.71794
0.556                  0.9987836       -7.778312
0.56                   0.9988435       -7.838989
0.564                  0.9989036       -7.899971
0.568                  0.9989637        -7.96126
0.572                  0.9990233        -8.02286
0.576                  0.9990826       -8.084766
0.58                   0.9991413       -8.146983
0.584                  0.9991993       -8.209508
0.588                   0.999256       -8.272341
0.592                  0.9993115       -8.335476
0.596                  0.9993657       -8.398914
0.6                    0.9994182       -8.462653
0.604                   0.999469       -8.526685
0.608                  0.9995178       -8.591008
0.612                  0.9995645       -8.655618
0.616                  0.9996089       -8.720507
0.62                   0.9996507       -8.785673
0.624                  0.9996899       -8.851106
0.628                  0.9997264         -8.9168
0.632                    0.99976        -8.98275
0.636                  0.9997906       -9.048944
0.64                   0.9998181       -9.115376
0.644                   0.999842        -9.18204
0.648                  0.9998629       -9.248922
0.652                  0.9998802       -9.316017
0.656                  0.9998938       -9.383314
0.66                   0.9999039       -9.450802
0.664                  0.9999103       -9.518472
0.668                  0.9999129       -9.586316
0.672                  0.9999118        -9.65432
0.676                  0.9999067       -9.722478
0.68                   0.9998979       -9.790774
0.684                  0.9998853       -9.859202
0.688                  0.9998687       -9.927748
0.692                  0.9998484       -9.996405
0.696                  0.9998242       -10.06516
0.7                    0.9997962         -10.134
0.704                  0.9997645       -10.20293
0.708                  0.9997292       -10.27192
0.712                  0.9996902       -10.34096
0.716                  0.9996478       -10.41006
0.72                   0.9996019       -10.47919
0.724                  0.9995527       -10.54835
0.728                  0.9995003       -10.61754
0.732                  0.9994448       -10.68674
0.736                  0.9993863       -10.75594
0.74                    0.999325       -10.82514
0.744                   0.999261       -10.89433
0.748                  0.9991946        -10.9635
0.752                  0.9991257       -11.03264
0.756                  0.9990548       -11.10176
0.76                   0.9989818       -11.17085
0.764                   0.998907        -11.2399
0.768                  0.9988304        -11.3089
0.772                  0.9987526       -11.37786
0.776                  0.9986735       -11.44677
0.78                   0.9985934       -11.51563
0.784                  0.9985124       -11.58444
0.788                   0.998431        -11.6532
0.792                  0.9983491       -11.72191
0.796                  0.9982669       -11.79056
0.8                    0.9981849       -11.85917
0.804                  0.9981031       -11.92773
0.808                  0.9980218       -11.99624
0.812                  0.9979412       -12.06471
0.816                  0.9978613       -12.13314
0.82                   0.9977827       -12.20155
0.824                  0.9977054       -12.26993
0.828                  0.9976295       -12.33828
0.832                  0.9975553       -12.40663
0.836                  0.9974832       -12.47497
0.84                    0.997413       -12.54332
0.844                  0.9973451       -12.61167
0.848                  0.9972796       -12.68005
0.852                  0.9972169       -12.74846
0.856                  0.9971568       -12.81692
0.86                   0.9970996       -12.88543
0.864                  0.9970455         -12.954
0.868                  0.9969946       -13.02266
0.872                  0.9969469        -13.0914
0.876                  0.9969027       -13.16025
0.88                   0.9968619       -13.22922
0.884                  0.9968249       -13.29832
0.888                  0.9967914       -13.36757
0.892                  0.9967616       -13.43697
0.896                  0.9967358       -13.50656
0.9                    0.9967136       -13.57633
0.904                  0.9966953       -13.64631
0.908                   0.996681       -13.71651
0.912                  0.9966703       -13.78695
0.916                  0.9966636       -13.85764
0.92                   0.9966607        -13.9286
0.924                  0.9966616       -13.99984
0.928                  0.9966662       -14.07138
0.932                  0.9966745       -14.14323
0.936                  0.9966862       -14.21542
0.94                   0.9967016       -14.28794
0.944                  0.9967203       -14.36082
0.948                  0.9967423       -14.43408
0.952                  0.9967674       -14.50772
0.956                  0.9967957       -14.58176
0.96                   0.9968265       -14.65622
0.964                  0.9968602        -14.7311
0.968                  0.9968965       -14.80642
0.972                   0.996935       -14.88219
0.976                  0.9969756       -14.95842
0.98                   0.9970182       -15.03513
0.984                  0.9970627       -15.11232
0.988                  0.9971086          -15.19
0.992                  0.9971557       -15.26818
0.996                  0.9972041       -15.34687
1                       0.997253       -15.42608
1.004                  0.9973027       -15.50581
1.008                  0.9973527       -15.58608
1.012                  0.9974027       -15.66688
1.016                  0.9974526       -15.74822
1.02                   0.9975021        -15.8301
1.024                  0.9975508       -15.91253
1.028                  0.9975987       -15.99553
1.032                  0.9976453       -16.07905
1.036                  0.9976905       -16.16314
1.04                   0.9977339       -16.24778
1.044                  0.9977754       -16.33297
1.048                  0.9978145        -16.4187
1.052                  0.9978512       -16.50501
1.056                  0.9978852       -16.59183
1.06                   0.9979162       -16.67923
1.064                   0.997944       -16.76712
1.068                  0.9979683       -16.85559
1.072                   0.997989       -16.94454
1.076                  0.9980058       -17.03407
1.08                   0.9980185       -17.12409
1.084                  0.9980269       -17.21461
1.088                  0.9980309       -17.30561
1.092                  0.9980303       -17.39711
1.096                  0.9980248        -17.4891
1.1                    0.9980143       -17.58155
1.104                  0.9979989       -17.67447
1.108                   0.997978       -17.76782
1.112                   0.997952       -17.86165
1.116                  0.9979203       -17.95588
1.12                   0.9978832       -18.05054
1.124                  0.9978404       -18.14556
1.128                  0.9977919       -18.24103
1.132                  0.9977376       -18.33686
1.136                  0.9976777       -18.43306
1.14                    0.997612       -18.52962
1.144                  0.9975404       -18.62652
1.148                  0.9974632       -18.72376
1.152                    0.99738       -18.82132
1.156                  0.9972912       -18.91918
1.16                   0.9971968       -19.01734
1.164                  0.9970967       -19.11579
1.168                  0.9969911       -19.21451
1.172                  0.9968801        -19.3135
1.176                  0.9967639       -19.41274
1.18                   0.9966423       -19.51222
1.184                  0.9965158       -19.61194
1.188                  0.9963845       -19.71187
1.192                  0.9962484       -19.81203
1.196                  0.9961078       -19.91239
1.2                    0.9959628       -20.01296
1.204                  0.9958137       -20.11371
1.208                  0.9956605       -20.21466
1.212                  0.9955037       -20.31578
1.216                  0.9953435       -20.41708
1.22                   0.9951799       -20.51856
1.224                  0.9950135       -20.62021
1.228                   0.994844       -20.72203
1.232                  0.9946723       -20.82402
1.236                  0.9944982       -20.92617
1.24                   0.9943223        -21.0285
1.244                  0.9941447       -21.13099
1.248                  0.9939656       -21.23366
1.252                  0.9937853       -21.33651
1.256                  0.9936043       -21.43953
1.26                   0.9934227       -21.54275
1.264                  0.9932407       -21.64616
1.268                  0.9930587       -21.74977
1.272                  0.9928772        -21.8536
1.276                   0.992696       -21.95764
1.28                   0.9925157       -22.06192
1.284                  0.9923364       -22.16645
1.288                  0.9921584       -22.27123
1.292                  0.9919821       -22.37628
1.296                  0.9918074       -22.48162
1.3                    0.9916349       -22.58726
1.304                  0.9914646       -22.69322
1.308                  0.9912968       -22.79952
1.312                  0.9911317       -22.90617
1.316                  0.9909694        -23.0132
1.32                   0.9908102       -23.12063
1.324                   0.990654       -23.22847
1.328                  0.9905013       -23.33675
1.332                   0.990352       -23.44549
1.336                  0.9902063       -23.55471
1.34                   0.9900643       -23.66445
1.344                  0.9899261       -23.77471
1.348                  0.9897916       -23.88553
1.352                  0.9896611       -23.99694
1.356                  0.9895345       -24.10895
1.36                   0.9894116        -24.2216
1.364                  0.9892928       -24.33491
1.368                  0.9891777        -24.4489
1.372                  0.9890665       -24.56361
1.376                   0.988959       -24.67906
1.38                   0.9888551       -24.79528
1.384                   0.988755       -24.91229
1.388                  0.9886582       -25.03013
1.392                  0.9885645       -25.14881
1.396                   0.988474       -25.26837
1.4                    0.9883865       -25.38883
1.404                  0.9883016       -25.51022
1.408                  0.9882191       -25.63256
1.412                   0.988139       -25.75588
1.416                  0.9880609       -25.88021
1.42                   0.9879845       -26.00556
1.424                  0.9879094       -26.13197
1.428                  0.9878355       -26.25945
1.432                  0.9877623       -26.38803
1.436                  0.9876897       -26.51772
1.44                   0.9876171       -26.64857
1.444                  0.9875441       -26.78057
1.448                  0.9874704       -26.91375
1.452                  0.9873959       -27.04813
1.456                  0.9873197       -27.18373
1.46                   0.9872416       -27.32056
1.464                  0.9871613       -27.45864
1.468                  0.9870782       -27.59799
1.472                  0.9869921       -27.73861
1.476                  0.9869022       -27.88053
1.48                   0.9868082       -28.02375
1.484                  0.9867098       -28.16828
1.488                  0.9866063       -28.31414
1.492                  0.9864975       -28.46133
1.496                  0.9863828       -28.60986
1.5                    0.9862616       -28.75974
1.504                  0.9861338       -28.91096
1.508                  0.9859986       -29.06354
1.512                  0.9858558       -29.21748
1.516                  0.9857048       -29.37279
1.52                   0.9855452       -29.52946
1.524                  0.9853765       -29.68749
1.528                  0.9851985       -29.84689
1.532                  0.9850107       -30.00764
1.536                  0.9848125       -30.16976
1.54                   0.9846037       -30.33323
1.544                  0.9843839       -30.49806
1.548                  0.9841529       -30.66423
1.552                    0.98391       -30.83175
1.556                  0.9836549        -31.0006
1.56                   0.9833875       -31.17078
1.564                  0.9831075       -31.34228
1.568                  0.9828144        -31.5151
1.572                  0.9825082       -31.68922
1.576                  0.9821884       -31.86465
1.58                   0.9818549       -32.04135
1.584                  0.9815073       -32.21934
1.588                  0.9811457       -32.39861
1.592                  0.9807699       -32.57912
1.596                  0.9803794        -32.7609
1.6                    0.9799743       -32.94391
1.604                  0.9795547       -33.12817
1.608                  0.9791202       -33.31364
1.612                  0.9786708       -33.50032
1.616                  0.9782065       -33.68822
1.62                   0.9777273       -33.87731
1.624                  0.9772332        -34.0676
1.628                  0.9767241       -34.25907
1.632                     0.9762       -34.45171
1.636                  0.9756612       -34.64553
1.64                   0.9751076       -34.84051
1.644                  0.9745394       -35.03665
1.648                  0.9739566       -35.23396
1.652                  0.9733592       -35.43243
1.656                  0.9727477       -35.63205
1.66                   0.9721222       -35.83283
1.664                  0.9714826       -36.03476
1.668                  0.9708292       -36.23787
1.672                  0.9701623       -36.44213
1.676                  0.9694821       -36.64757
1.68                   0.9687888       -36.85419
1.684                  0.9680827         -37.062
1.688                  0.9673638       -37.27101
1.692                  0.9666328       -37.48122
1.696                  0.9658896       -37.69267
1.7                    0.9651344       -37.90536
1.704                  0.9643677        -38.1193
1.708                  0.9635899       -38.33453
1.712                  0.9628008       -38.55107
1.716                  0.9620011       -38.76891
1.72                   0.9611909       -38.98812
1.724                  0.9603704       -39.20871
1.728                  0.9595401        -39.4307
1.732                  0.9586998       -39.65413
1.736                  0.9578501       -39.87905
1.74                   0.9569912       -40.10547
1.744                  0.9561231       -40.33345
1.748                  0.9552462       -40.56301
1.752                  0.9543606       -40.79421
1.756                  0.9534664       -41.02708
1.76                   0.9525639       -41.26169
1.764                  0.9516531       -41.49807
1.768                  0.9507341       -41.73627
1.772                  0.9498069       -41.97635
1.776                  0.9488717       -42.21838
1.78                   0.9479283       -42.46239
1.784                   0.946977       -42.70845
1.788                  0.9460175       -42.95663
1.792                  0.9450499       -43.20698
1.796                  0.9440738       -43.45957
1.8                    0.9430892       -43.71447
1.804                  0.9420962       -43.97174
1.808                  0.9410941       -44.23146
1.812                  0.9400828       -44.49369
1.816                  0.9390623       -44.75851
1.82                   0.9380318       -45.02599
1.824                  0.9369911       -45.29621
1.828                  0.9359398       -45.56924
1.832                  0.9348775       -45.84517
1.836                  0.9338035       -46.12406
1.84                   0.9327174         -46.406
1.844                  0.9316185       -46.69107
1.848                  0.9305063       -46.97933
1.852                  0.9293799       -47.27091
1.856                  0.9282386       -47.56584
1.86                   0.9270817       -47.86424
1.864                  0.9259083       -48.16616
1.868                  0.9247175       -48.47172
1.872                  0.9235084       -48.78097
1.876                  0.9222803         -49.094
1.88                   0.9210317        -49.4109
1.884                   0.919762       -49.73176
1.888                  0.9184699       -50.05664
1.892                  0.9171542       -50.38564
1.896                  0.9158139       -50.71883
1.9                    0.9144476       -51.05631
1.904                  0.9130542       -51.39814
1.908                  0.9116323       -51.74441
1.912                  0.9101808        -52.0952
1.916                   0.908698       -52.45059
1.92                   0.9071829       -52.81064
1.924                  0.9056337       -53.17543
1.928                  0.9040493       -53.54506
1.932                  0.9024279        -53.9196
1.936                  0.9007683       -54.29908
1.94                   0.8990688       -54.68362
1.944                  0.8973278       -55.07328
1.948                  0.8955438       -55.46814
1.952                  0.8937155       -55.86823
1.956                  0.8918408       -56.27366
1.96                   0.8899186       -56.68447
1.964                  0.8879469       -57.10073
1.968                  0.8859243       -57.52252
1.972                  0.8838489       -57.94989
1.976                  0.8817193        -58.3829
1.98                   0.8795339       -58.82162
1.984                   0.877291        -59.2661
1.988                  0.8749889        -59.7164
1.992                   0.872626       -60.17259
1.996                  0.8702007       -60.63471
2                      0.8677114       -61.10283
2.004                  0.8651563         -61.577
2.008                  0.8625343       -62.05728
2.012                  0.8598433       -62.54369
2.016                  0.8570823       -63.03632
2.02                   0.8542493       -63.53522
2.024                  0.8513431       -64.04044
2.028                  0.8483621       -64.55199
2.032                  0.8453048       -65.06999
2.036                  0.8421701       -65.59444
2.04                   0.8389562       -66.12542
2.044                  0.8356622       -66.66295
2.048                  0.8322866       -67.20711
2.052                  0.8288282       -67.75794
2.056                  0.8252857       -68.31551
2.06                   0.8216579       -68.87984
2.064                  0.8179439       -69.45101
2.068                  0.8141424       -70.02906
2.072                  0.8102527       -70.61404
2.076                  0.8062735       -71.20604
2.08                    0.802204       -71.80508
2.084                  0.7980435       -72.41125
2.088                  0.7937911       -73.02459
2.092                  0.7894461       -73.64519
2.096                  0.7850077        -74.2731
2.1                    0.7804755       -74.90839
2.104                  0.7758489       -75.55111
2.108                  0.7711274       -76.20137
2.112                  0.7663106       -76.85925
2.116                  0.7613983       -77.52481
2.12                   0.7563901       -78.19816
2.124                   0.751286       -78.87938
2.128                  0.7460858       -79.56854
2.132                  0.7407894       -80.26577
2.136                  0.7353969       -80.97119
2.14                   0.7299086       -81.68488
2.144                  0.7243245       -82.40695
2.148                   0.718645       -83.13756
2.152                  0.7128706       -83.87684
2.156                  0.7070016       -84.62488
2.16                   0.7010386       -85.38188
2.164                  0.6949823       -86.14796
2.168                  0.6888335        -86.9233
2.172                  0.6825929       -87.70808
2.176                  0.6762616       -88.50247
2.18                   0.6698406       -89.30667
2.184                  0.6633308        -90.1209
2.188                  0.6567336       -90.94536
2.192                  0.6500504       -91.78029
2.196                  0.6432824       -92.62593
2.2                    0.6364314       -93.48257
2.204                  0.6294988       -94.35044
2.208                  0.6224864       -95.22987
2.212                  0.6153963       -96.12118
2.216                    0.60823       -97.02468
2.22                     0.60099       -97.94071
2.224                  0.5936784        -98.8697
2.228                  0.5862975         -99.812
2.232                  0.5788497        -100.768
2.236                  0.5713376       -101.7383
2.24                   0.5637639       -102.7232
2.244                  0.5561316       -103.7233
2.248                  0.5484435       -104.7391
2.252                  0.5407029       -105.7713
2.256                   0.532913       -106.8203
2.26                   0.5250773       -107.8868
2.264                  0.5171993       -108.9717
2.268                  0.5092829       -110.0755
2.272                  0.5013322        -111.199
2.276                  0.4933511       -112.3432
2.28                   0.4853441       -113.5088
2.284                  0.4773157       -114.6968
2.288                  0.4692708       -115.9082
2.292                  0.4612143        -117.144
2.296                  0.4531514       -118.4054
2.3                    0.4450878       -119.6935
2.304                  0.4370292       -121.0096
2.308                  0.4289816        -122.355
2.312                  0.4209515       -123.7312
2.316                  0.4129456       -125.1396
2.32                   0.4049708       -126.5818
2.324                  0.3970347       -128.0594
2.328                  0.3891449       -129.5742
2.332                  0.3813099        -131.128
2.336                   0.373538       -132.7226
2.34                   0.3658387       -134.3601
2.344                  0.3582212       -136.0426
2.348                  0.3506959        -137.772
2.352                  0.3432733       -139.5507