! TOUCHSTONE file generated by CST MICROWAVE STUDIO
! Date and time: Thu May 12 17:57:34 2022
! Project name: AppElm_antenne_dipole_FR4.cst
! Parameters = {L=38.8; e=0.035; f=2.45e+09; h=1.6; i=0.8; l1=4; lambda=122.449; ls=30; wl=1.7; ws=84}
! Header version: 2018
! Port assignment regex: !\s*Touchstone port\s*([0-9]+)\s*=\s*(CST MWS port|CST DS port)\s*([0-9]+|Zmin|Zmax)\s*\(\"(.*)\"\)(\s*mode\s*([0-9]+))?.*
! Touchstone port assignment:
! Touchstone port 1 = CST MWS port 1 ("")
# GHz S MA R 50
0                      0.9999142              -0
0.004                  0.9999139     -0.05503964
0.008                  0.9999131      -0.1100787
0.012                  0.9999118      -0.1651165
0.016                    0.99991      -0.2201527
0.02                   0.9999076      -0.2751865
0.024                  0.9999048      -0.3302173
0.028                  0.9999015      -0.3852447
0.032                  0.9998975      -0.4402681
0.036                  0.9998931      -0.4952869
0.04                   0.9998882      -0.5503005
0.044                  0.9998828      -0.6053086
0.048                   0.999877      -0.6603104
0.052                  0.9998707      -0.7153055
0.056                   0.999864      -0.7702935
0.06                   0.9998567       -0.825274
0.064                  0.9998491      -0.8802463
0.068                  0.9998409      -0.9352101
0.072                  0.9998324       -0.990165
0.076                  0.9998234       -1.045111
0.08                   0.9998142       -1.100047
0.084                  0.9998046       -1.154973
0.088                  0.9997945       -1.209888
0.092                  0.9997842       -1.264793
0.096                  0.9997734       -1.319688
0.1                    0.9997624       -1.374571
0.104                  0.9997511       -1.429443
0.108                  0.9997395       -1.484304
0.112                  0.9997277       -1.539154
0.116                  0.9997156       -1.593992
0.12                   0.9997034       -1.648818
0.124                  0.9996908       -1.703633
0.128                  0.9996783       -1.758437
0.132                  0.9996654       -1.813229
0.136                  0.9996524        -1.86801
0.14                   0.9996394       -1.922781
0.144                  0.9996264        -1.97754
0.148                  0.9996132        -2.03229
0.152                     0.9996       -2.087029
0.156                  0.9995867       -2.141759
0.16                   0.9995736        -2.19648
0.164                  0.9995605       -2.251193
0.168                  0.9995473       -2.305897
0.172                  0.9995343       -2.360595
0.176                  0.9995215       -2.415286
0.18                   0.9995087       -2.469971
0.184                  0.9994961       -2.524652
0.188                  0.9994838       -2.579329
0.192                  0.9994716       -2.634003
0.196                  0.9994597       -2.688675
0.2                    0.9994481       -2.743347
0.204                  0.9994368       -2.798019
0.208                  0.9994257       -2.852693
0.212                  0.9994152        -2.90737
0.216                  0.9994048       -2.962052
0.22                   0.9993949        -3.01674
0.224                  0.9993855       -3.071436
0.228                  0.9993765       -3.126141
0.232                  0.9993679       -3.180857
0.236                  0.9993599       -3.235586
0.24                   0.9993523        -3.29033
0.244                  0.9993453        -3.34509
0.248                  0.9993388       -3.399869
0.252                  0.9993329       -3.454668
0.256                  0.9993276        -3.50949
0.26                    0.999323       -3.564336
0.264                  0.9993189        -3.61921
0.268                  0.9993155       -3.674113
0.272                  0.9993127       -3.729048
0.276                  0.9993106       -3.784016
0.28                   0.9993092       -3.839022
0.284                  0.9993084       -3.894066
0.288                  0.9993085       -3.949152
0.292                  0.9993091       -4.004282
0.296                  0.9993104       -4.059458
0.3                    0.9993126       -4.114684
0.304                  0.9993154       -4.169962
0.308                  0.9993189       -4.225294
0.312                  0.9993233       -4.280684
0.316                  0.9993281       -4.336135
0.32                   0.9993339       -4.391647
0.324                  0.9993402       -4.447226
0.328                  0.9993473       -4.502874
0.332                  0.9993551       -4.558593
0.336                  0.9993637       -4.614386
0.34                   0.9993728       -4.670254
0.344                  0.9993826       -4.726204
0.348                  0.9993931       -4.782236
0.352                  0.9994042       -4.838353
0.356                  0.9994159       -4.894557
0.36                   0.9994282       -4.950851
0.364                   0.999441        -5.00724
0.368                  0.9994544       -5.063723
0.372                  0.9994683       -5.120305
0.376                  0.9994826       -5.176987
0.38                   0.9994975       -5.233773
0.384                  0.9995128       -5.290663
0.388                  0.9995284       -5.347662
0.392                  0.9995445       -5.404771
0.396                  0.9995607       -5.461991
0.4                    0.9995774       -5.519326
0.404                  0.9995942       -5.576777
0.408                  0.9996114       -5.634344
0.412                  0.9996286       -5.692033
0.416                  0.9996461       -5.749842
0.42                   0.9996634       -5.807775
0.424                  0.9996809       -5.865832
0.428                  0.9996984       -5.924014
0.432                  0.9997159       -5.982323
0.436                  0.9997333       -6.040761
0.44                   0.9997504       -6.099327
0.444                  0.9997675       -6.158024
0.448                  0.9997842       -6.216852
0.452                  0.9998007       -6.275811
0.456                  0.9998168       -6.334901
0.46                   0.9998326       -6.394124
0.464                   0.999848       -6.453479
0.468                  0.9998628       -6.512967
0.472                  0.9998773       -6.572587
0.476                  0.9998909        -6.63234
0.48                   0.9999041       -6.692225
0.484                  0.9999166       -6.752241
0.488                  0.9999283       -6.812388
0.492                  0.9999394       -6.872666
0.496                  0.9999496       -6.933074
0.5                     0.999959       -6.993609
0.504                  0.9999675       -7.054274
0.508                  0.9999751       -7.115063
0.512                  0.9999818       -7.175978
0.516                  0.9999876       -7.237017
0.52                   0.9999922       -7.298179
0.524                  0.9999958        -7.35946
0.528                  0.9999982       -7.420861
0.532                  0.9999997       -7.482379
0.536                          1       -7.544012
0.54                   0.9999991       -7.605759
0.544                   0.999997       -7.667616
0.548                  0.9999938       -7.729582
0.552                  0.9999894       -7.791655
0.556                  0.9999836       -7.853836
0.56                   0.9999767       -7.916116
0.564                  0.9999685       -7.978498
0.568                  0.9999591       -8.040977
0.572                  0.9999484       -8.103552
0.576                  0.9999364       -8.166219
0.58                   0.9999231       -8.228978
0.584                  0.9999088       -8.291825
0.588                  0.9998932       -8.354757
0.592                  0.9998763       -8.417774
0.596                  0.9998582        -8.48087
0.6                     0.999839       -8.544048
0.604                  0.9998184       -8.607299
0.608                   0.999797       -8.670628
0.612                  0.9997742       -8.734028
0.616                  0.9997505         -8.7975
0.62                   0.9997258       -8.861038
0.624                     0.9997       -8.924644
0.628                  0.9996733       -8.988314
0.632                  0.9996456       -9.052046
0.636                  0.9996171       -9.115843
0.64                   0.9995877       -9.179696
0.644                  0.9995576       -9.243611
0.648                  0.9995267       -9.307584
0.652                  0.9994952       -9.371613
0.656                   0.999463       -9.435697
0.66                   0.9994303       -9.499838
0.664                  0.9993972       -9.564034
0.668                  0.9993634       -9.628286
0.672                  0.9993295       -9.692589
0.676                  0.9992952       -9.756949
0.68                   0.9992606       -9.821365
0.684                   0.999226       -9.885834
0.688                  0.9991913       -9.950361
0.692                  0.9991565       -10.01494
0.696                  0.9991216       -10.07959
0.7                    0.9990869       -10.14429
0.704                  0.9990526       -10.20905
0.708                  0.9990184       -10.27388
0.712                  0.9989845       -10.33877
0.716                   0.998951       -10.40374
0.72                   0.9989182       -10.46877
0.724                  0.9988858       -10.53387
0.728                  0.9988539       -10.59905
0.732                  0.9988228       -10.66431
0.736                  0.9987924       -10.72965
0.74                   0.9987629       -10.79508
0.744                  0.9987342        -10.8606
0.748                  0.9987064       -10.92622
0.752                  0.9986797       -10.99193
0.756                   0.998654       -11.05775
0.76                   0.9986294       -11.12367
0.764                   0.998606       -11.18971
0.768                  0.9985838       -11.25587
0.772                  0.9985628       -11.32215
0.776                   0.998543       -11.38856
0.78                   0.9985247       -11.45511
0.784                  0.9985077       -11.52179
0.788                  0.9984921       -11.58863
0.792                   0.998478       -11.65561
0.796                  0.9984652       -11.72276
0.8                     0.998454       -11.79007
0.804                  0.9984441       -11.85755
0.808                  0.9984359       -11.92522
0.812                  0.9984291       -11.99307
0.816                  0.9984238       -12.06111
0.82                   0.9984201       -12.12935
0.824                  0.9984178       -12.19779
0.828                  0.9984169       -12.26645
0.832                  0.9984176       -12.33533
0.836                  0.9984196       -12.40443
0.84                    0.998423       -12.47377
0.844                  0.9984278       -12.54335
0.848                   0.998434       -12.61317
0.852                  0.9984415       -12.68325
0.856                  0.9984501       -12.75359
0.86                   0.9984601       -12.82419
0.864                  0.9984711       -12.89507
0.868                  0.9984833       -12.96623
0.872                  0.9984963       -13.03768
0.876                  0.9985104       -13.10941
0.88                   0.9985254       -13.18145
0.884                  0.9985412       -13.25379
0.888                  0.9985576       -13.32643
0.892                  0.9985747        -13.3994
0.896                  0.9985922       -13.47268
0.9                    0.9986103       -13.54629
0.904                  0.9986287       -13.62023
0.908                  0.9986474        -13.6945
0.912                  0.9986661       -13.76911
0.916                  0.9986849       -13.84406
0.92                   0.9987037       -13.91936
0.924                  0.9987222       -13.99501
0.928                  0.9987405       -14.07102
0.932                  0.9987583       -14.14738
0.936                  0.9987757       -14.22409
0.94                   0.9987924       -14.30117
0.944                  0.9988084       -14.37861
0.948                  0.9988235       -14.45642
0.952                  0.9988376       -14.53459
0.956                  0.9988506       -14.61313
0.96                   0.9988624       -14.69204
0.964                  0.9988729       -14.77132
0.968                  0.9988819       -14.85096
0.972                  0.9988893       -14.93097
0.976                  0.9988952       -15.01135
0.98                    0.998899        -15.0921
0.984                  0.9989011       -15.17322
0.988                  0.9989012       -15.25469
0.992                  0.9988991       -15.33654
0.996                  0.9988948       -15.41874
1                      0.9988883        -15.5013
1.004                  0.9988793       -15.58422
1.008                  0.9988679       -15.66749
1.012                  0.9988538       -15.75112
1.016                  0.9988371       -15.83509
1.02                   0.9988177        -15.9194
1.024                  0.9987955       -16.00406
1.028                  0.9987704       -16.08905
1.032                  0.9987425       -16.17437
1.036                  0.9987114       -16.26005
1.04                   0.9986774         -16.346
1.044                  0.9986402        -16.4323
1.048                  0.9985999       -16.51891
1.052                  0.9985566       -16.60587
1.056                    0.99851       -16.69308
1.06                   0.9984602       -16.78062
1.064                  0.9984073       -16.86845
1.068                  0.9983511       -16.95656
1.072                  0.9982916       -17.04497
1.076                  0.9982291       -17.13366
1.08                   0.9981633       -17.22264
1.084                  0.9980942        -17.3119
1.088                  0.9980222        -17.4014
1.092                   0.997947       -17.49117
1.096                  0.9978688        -17.5812
1.1                    0.9977875       -17.67149
1.104                  0.9977034       -17.76203
1.108                  0.9976162       -17.85282
1.112                  0.9975263       -17.94385
1.116                  0.9974336       -18.03513
1.12                   0.9973383       -18.12665
1.124                  0.9972404        -18.2184
1.128                    0.99714       -18.31037
1.132                  0.9970372       -18.40258
1.136                  0.9969322       -18.49502
1.14                   0.9968251       -18.58769
1.144                  0.9967159       -18.68058
1.148                  0.9966047        -18.7737
1.152                  0.9964917       -18.86704
1.156                   0.996377       -18.96062
1.16                   0.9962608       -19.05441
1.164                  0.9961432       -19.14844
1.168                  0.9960243       -19.24269
1.172                  0.9959043       -19.33717
1.176                  0.9957833       -19.43189
1.18                   0.9956614       -19.52684
1.184                  0.9955387       -19.62204
1.188                  0.9954156       -19.71747
1.192                   0.995292       -19.81316
1.196                  0.9951682        -19.9091
1.2                    0.9950442        -20.0053
1.204                  0.9949202       -20.10177
1.208                  0.9947964       -20.19851
1.212                  0.9946728       -20.29553
1.216                  0.9945498       -20.39284
1.22                   0.9944273       -20.49045
1.224                  0.9943055       -20.58836
1.228                  0.9941846       -20.68659
1.232                  0.9940647       -20.78515
1.236                  0.9939457       -20.88404
1.24                   0.9938281       -20.98327
1.244                  0.9937116       -21.08287
1.248                  0.9935966       -21.18284
1.252                  0.9934832       -21.28319
1.256                  0.9933713       -21.38394
1.26                    0.993261        -21.4851
1.264                  0.9931526       -21.58669
1.268                   0.993046       -21.68871
1.272                  0.9929412       -21.79119
1.276                  0.9928383       -21.89414
1.28                   0.9927375       -21.99757
1.284                  0.9926387        -22.1015
1.288                  0.9925418       -22.20595
1.292                  0.9924469       -22.31093
1.296                  0.9923543       -22.41646
1.3                    0.9922636       -22.52255
1.304                  0.9921748       -22.62924
1.308                  0.9920881       -22.73652
1.312                  0.9920032       -22.84442
1.316                  0.9919204       -22.95296
1.32                   0.9918392       -23.06215
1.324                  0.9917599       -23.17201
1.328                  0.9916821       -23.28256
1.332                   0.991606       -23.39382
1.336                  0.9915313        -23.5058
1.34                    0.991458       -23.61852
1.344                  0.9913859         -23.732
1.348                  0.9913148       -23.84626
1.352                  0.9912447       -23.96131
1.356                  0.9911752       -24.07717
1.36                   0.9911063       -24.19386
1.364                   0.991038       -24.31139
1.368                  0.9909696       -24.42979
1.372                  0.9909014       -24.54905
1.376                   0.990833       -24.66921
1.38                   0.9907639       -24.79028
1.384                  0.9906943       -24.91226
1.388                  0.9906237       -25.03518
1.392                  0.9905521       -25.15905
1.396                  0.9904789       -25.28388
1.4                    0.9904042       -25.40968
1.404                  0.9903274       -25.53648
1.408                  0.9902485       -25.66427
1.412                   0.990167       -25.79307
1.416                  0.9900827        -25.9229
1.42                   0.9899953       -26.05375
1.424                  0.9899046       -26.18565
1.428                  0.9898101        -26.3186
1.432                  0.9897118       -26.45261
1.436                   0.989609       -26.58768
1.44                   0.9895019       -26.72382
1.444                  0.9893897       -26.86105
1.448                  0.9892724       -26.99936
1.452                  0.9891496       -27.13877
1.456                  0.9890211       -27.27926
1.46                   0.9888863       -27.42086
1.464                  0.9887453       -27.56357
1.468                  0.9885975       -27.70738
1.472                  0.9884426        -27.8523
1.476                  0.9882807       -27.99833
1.48                    0.988111       -28.14547
1.484                  0.9879336       -28.29372
1.488                  0.9877481       -28.44309
1.492                  0.9875542       -28.59357
1.496                  0.9873517       -28.74516
1.5                    0.9871403       -28.89787
1.504                  0.9869199       -29.05167
1.508                    0.98669       -29.20659
1.512                  0.9864507       -29.36262
1.516                  0.9862015       -29.51974
1.52                   0.9859423       -29.67796
1.524                   0.985673       -29.83728
1.528                  0.9853934       -29.99769
1.532                  0.9851032       -30.15918
1.536                  0.9848024       -30.32176
1.54                   0.9844908       -30.48542
1.544                  0.9841682       -30.65016
1.548                  0.9838346       -30.81597
1.552                  0.9834898       -30.98284
1.556                  0.9831337       -31.15078
1.56                   0.9827664       -31.31978
1.564                  0.9823876       -31.48984
1.568                  0.9819975       -31.66095
1.572                  0.9815958       -31.83311
1.576                  0.9811826       -32.00632
1.58                    0.980758       -32.18057
1.584                  0.9803217       -32.35586
1.588                  0.9798741       -32.53219
1.592                   0.979415       -32.70956
1.596                  0.9789444       -32.88797
1.6                    0.9784624       -33.06742
1.604                  0.9779692       -33.24791
1.608                  0.9774649       -33.42944
1.612                  0.9769493       -33.61201
1.616                  0.9764227       -33.79564
1.62                   0.9758852       -33.98031
1.624                  0.9753369       -34.16603
1.628                   0.974778       -34.35283
1.632                  0.9742085       -34.54068
1.636                  0.9736287       -34.72961
1.64                   0.9730387       -34.91962
1.644                  0.9724385       -35.11075
1.648                  0.9718285       -35.30296
1.652                  0.9712087       -35.49631
1.656                  0.9705795       -35.69078
1.66                   0.9699407       -35.88641
1.664                  0.9692928        -36.0832
1.668                  0.9686358       -36.28118
1.672                    0.96797       -36.48036
1.676                  0.9672956       -36.68076
1.68                   0.9666127       -36.88241
1.684                  0.9659214       -37.08534
1.688                   0.965222       -37.28956
1.692                  0.9645145       -37.49511
1.696                  0.9637992       -37.70201
1.7                    0.9630762       -37.91029
1.704                  0.9623457       -38.11999
1.708                  0.9616076       -38.33114
1.712                  0.9608623       -38.54376
1.716                  0.9601097       -38.75792
1.72                   0.9593499       -38.97363
1.724                  0.9585832       -39.19093
1.728                  0.9578093       -39.40988
1.732                  0.9570285        -39.6305
1.736                  0.9562406       -39.85286
1.74                   0.9554458       -40.07699
1.744                  0.9546441       -40.30293
1.748                  0.9538351       -40.53075
1.752                  0.9530192       -40.76049
1.756                  0.9521959        -40.9922
1.76                   0.9513655       -41.22593
1.764                  0.9505275       -41.46174
1.768                  0.9496817       -41.69969
1.772                  0.9488282       -41.93983
1.776                  0.9479664       -42.18223
1.78                   0.9470963       -42.42693
1.784                  0.9462176         -42.674
1.788                  0.9453298       -42.92351
1.792                  0.9444328       -43.17551
1.796                  0.9435259       -43.43006
1.8                    0.9426089       -43.68724
1.804                  0.9416812       -43.94711
1.808                  0.9407424       -44.20973
1.812                   0.939792       -44.47517
1.816                  0.9388291       -44.74351
1.82                   0.9378535       -45.01479
1.824                  0.9368645       -45.28909
1.828                  0.9358613       -45.56649
1.832                  0.9348431       -45.84705
1.836                  0.9338094       -46.13086
1.84                   0.9327593       -46.41794
1.844                   0.931692       -46.70839
1.848                  0.9306066       -47.00229
1.852                  0.9295024        -47.2997
1.856                   0.928378       -47.60069
1.86                   0.9272329       -47.90531
1.864                  0.9260661       -48.21365
1.868                  0.9248763       -48.52579
1.872                  0.9236627       -48.84176
1.876                   0.922424       -49.16167
1.88                   0.9211592       -49.48556
1.884                  0.9198671       -49.81351
1.888                  0.9185466       -50.14558
1.892                  0.9171965       -50.48182
1.896                  0.9158155       -50.82234
1.9                    0.9144024       -51.16716
1.904                   0.912956       -51.51637
1.908                  0.9114748       -51.87002
1.912                  0.9099575       -52.22818
1.916                   0.908403        -52.5909
1.92                   0.9068097       -52.95826
1.924                  0.9051761       -53.33031
1.928                  0.9035013        -53.7071
1.932                  0.9017834        -54.0887
1.936                  0.9000212       -54.47517
1.94                   0.8982133       -54.86655
1.944                  0.8963582        -55.2629
1.948                  0.8944543       -55.66429
1.952                  0.8925004       -56.07076
1.956                  0.8904949       -56.48237
1.96                   0.8884364       -56.89916
1.964                  0.8863234        -57.3212
1.968                  0.8841544       -57.74852
1.972                  0.8819281       -58.18117
1.976                  0.8796429       -58.61923
1.98                   0.8772975        -59.0627
1.984                  0.8748904       -59.51167
1.988                    0.87242       -59.96617
1.992                  0.8698852       -60.42624
1.996                  0.8672844       -60.89194
2                      0.8646162        -61.3633
2.004                  0.8618794       -61.84038
2.008                  0.8590727       -62.32322
2.012                  0.8561944       -62.81185
2.016                  0.8532438       -63.30633
2.02                    0.850219        -63.8067
2.024                  0.8471193         -64.313
2.028                  0.8439433       -64.82529
2.032                  0.8406895       -65.34361
2.036                  0.8373572       -65.86799
2.04                   0.8339451       -66.39849
2.044                  0.8304523       -66.93515
2.048                  0.8268774       -67.47802
2.052                  0.8232197       -68.02716
2.056                  0.8194781       -68.58259
2.06                   0.8156519       -69.14438
2.064                    0.81174       -69.71258
2.068                  0.8077417       -70.28724
2.072                  0.8036562       -70.86841
2.076                  0.7994827       -71.45616
2.08                   0.7952207       -72.05053
2.084                  0.7908694       -72.65158
2.088                  0.7864283        -73.2594
2.092                   0.781897       -73.87402
2.096                  0.7772749       -74.49554
2.1                    0.7725616         -75.124
2.104                   0.767757        -75.7595
2.108                  0.7628605        -76.4021
2.112                  0.7578721       -77.05188
2.116                  0.7527916       -77.70894
2.12                   0.7476187       -78.37336
2.124                  0.7423539       -79.04521
2.128                  0.7369967       -79.72465
2.132                  0.7315476       -80.41172
2.136                  0.7260065       -81.10657
2.14                   0.7203738        -81.8093
2.144                  0.7146499       -82.52003
2.148                  0.7088351        -83.2389
2.152                  0.7029301       -83.96604
2.156                  0.6969351       -84.70157
2.16                   0.6908509       -85.44568
2.164                  0.6846782       -86.19851
2.168                  0.6784179       -86.96023
2.172                  0.6720708       -87.73103
2.176                  0.6656378       -88.51111
2.18                     0.65912       -89.30063
2.184                  0.6525185       -90.09985
2.188                  0.6458347       -90.90895
2.192                  0.6390696       -91.72822
2.196                  0.6322248        -92.5579
2.2                    0.6253018       -93.39824
2.204                  0.6183022       -94.24954
2.208                  0.6112275       -95.11209
2.212                  0.6040797       -95.98624
2.216                  0.5968607       -96.87231
2.22                   0.5895723       -97.77067
2.224                  0.5822168       -98.68172
2.228                  0.5747964       -99.60585
2.232                  0.5673134       -100.5435
2.236                  0.5597702       -101.4951
2.24                   0.5521695       -102.4613
2.244                  0.5445139       -103.4424
2.248                  0.5368063       -104.4391
2.252                  0.5290496       -105.4519
2.256                   0.521247       -106.4815
2.26                   0.5134018       -107.5286
2.264                  0.5055174       -108.5938
2.268                  0.4975974        -109.678
2.272                  0.4896456       -110.7819
2.276                  0.4816658       -111.9064
2.28                   0.4736624       -113.0524
2.284                  0.4656395       -114.2209
2.288                  0.4576018       -115.4129
2.292                   0.449554       -116.6296
2.296                  0.4415012        -117.872
2.3                    0.4334487       -119.1414
2.304                   0.425402       -120.4392
2.308                  0.4173669       -121.7668
2.312                  0.4093497       -123.1256
2.316                  0.4013567       -124.5173
2.32                   0.3933949       -125.9434
2.324                  0.3854714       -127.4058
2.328                  0.3775938       -128.9063
2.332                  0.3697701       -130.4469
2.336                  0.3620089       -132.0296
2.34                   0.3543192       -133.6565
2.344                  0.3467103         -135.33
2.348                  0.3391923       -137.0523
2.352                  0.3317758       -138.8258