! TOUCHSTONE file generated by CST MICROWAVE STUDIO
! Date and time: Thu May 12 17:57:31 2022
! Project name: AppElm_antenne_dipole_FR4.cst
! Parameters = {L=38.8; e=0.035; f=2.45e+09; h=1.6; i=0.8; l1=4; lambda=122.449; ls=30; wl=1.7; ws=68}
! Header version: 2018
! Port assignment regex: !\s*Touchstone port\s*([0-9]+)\s*=\s*(CST MWS port|CST DS port)\s*([0-9]+|Zmin|Zmax)\s*\(\"(.*)\"\)(\s*mode\s*([0-9]+))?.*
! Touchstone port assignment:
! Touchstone port 1 = CST MWS port 1 ("")
# GHz S MA R 50
0                       0.998004              -0
0.004                  0.9980056      -0.0511354
0.008                  0.9980102      -0.1022814
0.012                  0.9980179      -0.1534485
0.016                  0.9980287      -0.2046472
0.02                   0.9980426      -0.2558878
0.024                  0.9980594      -0.3071808
0.028                  0.9980792       -0.358536
0.032                  0.9981018      -0.4099637
0.036                  0.9981274      -0.4614732
0.04                   0.9981554      -0.5130743
0.044                  0.9981862      -0.5647763
0.048                  0.9982195      -0.6165877
0.052                  0.9982554      -0.6685174
0.056                  0.9982934      -0.7205737
0.06                   0.9983338      -0.7727642
0.064                  0.9983762      -0.8250968
0.068                  0.9984205      -0.8775783
0.072                  0.9984667      -0.9302156
0.076                  0.9985146      -0.9830145
0.08                   0.9985639       -1.035981
0.084                  0.9986146       -1.089121
0.088                  0.9986665       -1.142438
0.092                  0.9987196       -1.195937
0.096                  0.9987735       -1.249622
0.1                     0.998828       -1.303496
0.104                  0.9988832       -1.357562
0.108                  0.9989387       -1.411821
0.112                  0.9989945       -1.466275
0.116                  0.9990503       -1.520926
0.12                   0.9991059       -1.575773
0.124                  0.9991611       -1.630818
0.128                  0.9992159       -1.686058
0.132                  0.9992701       -1.741494
0.136                  0.9993234       -1.797123
0.14                   0.9993757       -1.852943
0.144                  0.9994269       -1.908951
0.148                  0.9994767       -1.965144
0.152                   0.999525       -2.021519
0.156                  0.9995719       -2.078071
0.16                   0.9996167       -2.134794
0.164                  0.9996597       -2.191685
0.168                  0.9997009       -2.248738
0.172                  0.9997395       -2.305946
0.176                  0.9997761       -2.363303
0.18                   0.9998101       -2.420802
0.184                  0.9998417       -2.478437
0.188                  0.9998706       -2.536198
0.192                  0.9998968        -2.59408
0.196                  0.9999201       -2.652073
0.2                    0.9999406       -2.710169
0.204                  0.9999583        -2.76836
0.208                  0.9999727       -2.826637
0.212                  0.9999842       -2.884991
0.216                  0.9999926       -2.943413
0.22                   0.9999978       -3.001894
0.224                  0.9999999       -3.060423
0.228                  0.9999988       -3.118993
0.232                  0.9999945       -3.177593
0.236                  0.9999872       -3.236215
0.24                   0.9999768       -3.294849
0.244                   0.999963       -3.353486
0.248                  0.9999464       -3.412116
0.252                  0.9999266        -3.47073
0.256                   0.999904       -3.529321
0.26                   0.9998783       -3.587878
0.264                  0.9998499       -3.646394
0.268                  0.9998187        -3.70486
0.272                  0.9997849       -3.763269
0.276                  0.9997486       -3.821613
0.28                   0.9997096       -3.879883
0.284                  0.9996686       -3.938075
0.288                  0.9996252       -3.996181
0.292                  0.9995797       -4.054194
0.296                  0.9995323       -4.112109
0.3                    0.9994831       -4.169921
0.304                  0.9994323       -4.227624
0.308                  0.9993798       -4.285215
0.312                  0.9993261       -4.342689
0.316                  0.9992712       -4.400043
0.32                   0.9992154       -4.457274
0.324                  0.9991587       -4.514381
0.328                  0.9991013        -4.57136
0.332                  0.9990433        -4.62821
0.336                  0.9989851       -4.684933
0.34                   0.9989268       -4.741526
0.344                  0.9988685        -4.79799
0.348                  0.9988104       -4.854328
0.352                  0.9987528       -4.910538
0.356                  0.9986956       -4.966626
0.36                   0.9986393       -5.022592
0.364                  0.9985838       -5.078441
0.368                  0.9985294       -5.134177
0.372                  0.9984764       -5.189803
0.376                  0.9984248       -5.245324
0.38                   0.9983746       -5.300746
0.384                  0.9983263       -5.356077
0.388                    0.99828        -5.41132
0.392                  0.9982356       -5.466485
0.396                  0.9981933       -5.521578
0.4                    0.9981535       -5.576606
0.404                   0.998116        -5.63158
0.408                  0.9980811       -5.686507
0.412                  0.9980489       -5.741397
0.416                  0.9980193       -5.796258
0.42                   0.9979927       -5.851101
0.424                  0.9979692       -5.905935
0.428                  0.9979485       -5.960773
0.432                  0.9979309       -6.015624
0.436                  0.9979164       -6.070498
0.44                   0.9979053       -6.125407
0.444                  0.9978973       -6.180362
0.448                  0.9978925       -6.235376
0.452                  0.9978911       -6.290456
0.456                   0.997893       -6.345619
0.46                    0.997898       -6.400872
0.464                  0.9979062        -6.45623
0.468                  0.9979178       -6.511703
0.472                  0.9979327         -6.5673
0.476                  0.9979506       -6.623037
0.48                   0.9979717       -6.678921
0.484                  0.9979957       -6.734965
0.488                  0.9980228       -6.791179
0.492                  0.9980527       -6.847575
0.496                  0.9980854       -6.904162
0.5                    0.9981208        -6.96095
0.504                  0.9981586       -7.017949
0.508                  0.9981991       -7.075167
0.512                  0.9982419       -7.132615
0.516                  0.9982868       -7.190301
0.52                   0.9983337       -7.248232
0.524                  0.9983826       -7.306416
0.528                  0.9984332       -7.364861
0.532                  0.9984853       -7.423573
0.536                   0.998539       -7.482559
0.54                   0.9985938       -7.541822
0.544                  0.9986496       -7.601371
0.548                  0.9987063       -7.661208
0.552                  0.9987637       -7.721337
0.556                  0.9988217       -7.781762
0.56                     0.99888       -7.842487
0.564                  0.9989384       -7.903511
0.568                  0.9989966        -7.96484
0.572                  0.9990547       -8.026471
0.576                  0.9991123       -8.088405
0.58                   0.9991692       -8.150645
0.584                  0.9992251       -8.213186
0.588                  0.9992802       -8.276029
0.592                   0.999334       -8.339173
0.596                  0.9993865       -8.402612
0.6                    0.9994373       -8.466346
0.604                  0.9994864        -8.53037
0.608                  0.9995335        -8.59468
0.612                  0.9995785       -8.659271
0.616                  0.9996211       -8.724137
0.62                   0.9996615       -8.789275
0.624                  0.9996993       -8.854674
0.628                  0.9997342       -8.920331
0.632                  0.9997664       -8.986237
0.636                  0.9997956       -9.052385
0.64                   0.9998217       -9.118769
0.644                  0.9998446       -9.185377
0.648                  0.9998642       -9.252203
0.652                  0.9998803       -9.319236
0.656                  0.9998929       -9.386469
0.66                   0.9999021       -9.453892
0.664                  0.9999076       -9.521494
0.668                  0.9999095       -9.589266
0.672                  0.9999075       -9.657197
0.676                   0.999902       -9.725278
0.68                   0.9998926       -9.793499
0.684                  0.9998796       -9.861847
0.688                  0.9998627       -9.930315
0.692                   0.999842       -9.998891
0.696                  0.9998177       -10.06757
0.7                    0.9997898       -10.13633
0.704                  0.9997581       -10.20517
0.708                   0.999723       -10.27408
0.712                  0.9996842       -10.34305
0.716                  0.9996421       -10.41207
0.72                   0.9995968       -10.48112
0.724                  0.9995481       -10.55021
0.728                  0.9994962       -10.61933
0.732                  0.9994414       -10.68845
0.736                  0.9993838       -10.75759
0.74                   0.9993234       -10.82672
0.744                  0.9992604       -10.89585
0.748                  0.9991951       -10.96496
0.752                  0.9991273       -11.03405
0.756                  0.9990575       -11.10312
0.76                   0.9989857       -11.17216
0.764                  0.9989123       -11.24116
0.768                  0.9988373       -11.31013
0.772                  0.9987609       -11.37906
0.776                  0.9986833       -11.44794
0.78                   0.9986049       -11.51678
0.784                  0.9985255       -11.58557
0.788                  0.9984457       -11.65432
0.792                  0.9983655       -11.72302
0.796                  0.9982852       -11.79168
0.8                    0.9982048       -11.86029
0.804                  0.9981249       -11.92886
0.808                  0.9980453       -11.99739
0.812                  0.9979665       -12.06588
0.816                  0.9978885       -12.13435
0.82                   0.9978118       -12.20279
0.824                  0.9977361       -12.27121
0.828                   0.997662       -12.33962
0.832                  0.9975898       -12.40802
0.836                  0.9975193       -12.47642
0.84                   0.9974509       -12.54483
0.844                  0.9973847       -12.61326
0.848                  0.9973209       -12.68172
0.852                  0.9972597       -12.75022
0.856                  0.9972012       -12.81877
0.86                   0.9971455       -12.88737
0.864                  0.9970929       -12.95605
0.868                  0.9970433       -13.02481
0.872                  0.9969969       -13.09367
0.876                  0.9969539       -13.16264
0.88                   0.9969144       -13.23173
0.884                  0.9968784       -13.30096
0.888                  0.9968459       -13.37033
0.892                   0.996817       -13.43988
0.896                  0.9967919        -13.5096
0.9                    0.9967704       -13.57951
0.904                  0.9967528       -13.64964
0.908                  0.9967388       -13.71999
0.912                  0.9967286       -13.79058
0.916                  0.9967222       -13.86142
0.92                   0.9967194       -13.93253
0.924                  0.9967204       -14.00393
0.928                  0.9967249       -14.07563
0.932                   0.996733       -14.14764
0.936                  0.9967446       -14.21998
0.94                   0.9967596       -14.29266
0.944                  0.9967777        -14.3657
0.948                  0.9967991       -14.43912
0.952                  0.9968235       -14.51292
0.956                  0.9968507       -14.58711
0.96                   0.9968808       -14.66172
0.964                  0.9969134       -14.73676
0.968                  0.9969484       -14.81223
0.972                  0.9969857       -14.88815
0.976                   0.997025       -14.96452
0.98                   0.9970661       -15.04137
0.984                   0.997109        -15.1187
0.988                  0.9971532       -15.19651
0.992                  0.9971985       -15.27483
0.996                  0.9972449       -15.35365
1                      0.9972921       -15.43298
1.004                  0.9973397       -15.51283
1.008                  0.9973875       -15.59321
1.012                  0.9974354       -15.67411
1.016                  0.9974831       -15.75556
1.02                   0.9975303       -15.83754
1.024                  0.9975767       -15.92006
1.028                  0.9976223       -16.00315
1.032                  0.9976665       -16.08672
1.036                  0.9977092        -16.1709
1.04                     0.99775       -16.25562
1.044                  0.9977889       -16.34086
1.048                  0.9978258       -16.42667
1.052                  0.9978599       -16.51301
1.056                  0.9978913       -16.59989
1.06                   0.9979197       -16.68729
1.064                   0.997945       -16.77524
1.068                  0.9979668        -16.8637
1.072                   0.997985       -16.95271
1.076                  0.9979994       -17.04221
1.08                   0.9980096       -17.13223
1.084                  0.9980157       -17.22275
1.088                  0.9980172       -17.31375
1.092                  0.9980142       -17.40525
1.096                  0.9980067       -17.49721
1.1                     0.997994       -17.58967
1.104                  0.9979763       -17.68256
1.108                  0.9979535       -17.77588
1.112                  0.9979254       -17.86965
1.116                  0.9978919       -17.96385
1.12                    0.997853       -18.05844
1.124                  0.9978085       -18.15346
1.128                  0.9977584       -18.24886
1.132                  0.9977028       -18.34463
1.136                  0.9976413       -18.44077
1.14                   0.9975743       -18.53727
1.144                  0.9975016       -18.63411
1.148                  0.9974232       -18.73128
1.152                  0.9973391       -18.82877
1.156                  0.9972495       -18.92657
1.16                   0.9971543       -19.02467
1.164                  0.9970536       -19.12305
1.168                  0.9969475       -19.22171
1.172                  0.9968361       -19.32062
1.176                  0.9967196       -19.41979
1.18                    0.996598       -19.51921
1.184                  0.9964714       -19.61887
1.188                  0.9963402       -19.71875
1.192                  0.9962043       -19.81884
1.196                   0.996064       -19.91916
1.2                    0.9959194       -20.01966
1.204                  0.9957708       -20.12038
1.208                  0.9956185       -20.22127
1.212                  0.9954624       -20.32236
1.216                  0.9953029       -20.42363
1.22                   0.9951405       -20.52508
1.224                  0.9949749       -20.62671
1.228                  0.9948068       -20.72851
1.232                  0.9946362       -20.83049
1.236                  0.9944635       -20.93264
1.24                   0.9942888       -21.03497
1.244                  0.9941126       -21.13747
1.248                   0.993935       -21.24016
1.252                  0.9937563       -21.34303
1.256                  0.9935769       -21.44609
1.26                   0.9933969       -21.54935
1.264                  0.9932166       -21.65281
1.268                  0.9930365       -21.75649
1.272                  0.9928565       -21.86038
1.276                  0.9926771       -21.96451
1.28                   0.9924985       -22.06887
1.284                   0.992321       -22.17349
1.288                  0.9921447       -22.27838
1.292                  0.9919701       -22.38354
1.296                  0.9917972       -22.48901
1.3                    0.9916263       -22.59478
1.304                  0.9914576       -22.70088
1.308                  0.9912914       -22.80734
1.312                  0.9911278       -22.91415
1.316                  0.9909668       -23.02135
1.32                   0.9908089       -23.12895
1.324                  0.9906542       -23.23698
1.328                  0.9905026       -23.34546
1.332                  0.9903544       -23.45441
1.336                  0.9902097       -23.56384
1.34                   0.9900685        -23.6738
1.344                  0.9899311       -23.78429
1.348                  0.9897972       -23.89535
1.352                  0.9896671         -24.007
1.356                  0.9895408       -24.11926
1.36                   0.9894182       -24.23217
1.364                  0.9892994       -24.34574
1.368                  0.9891843       -24.46001
1.372                  0.9890728       -24.57499
1.376                  0.9889649       -24.69073
1.38                   0.9888605       -24.80723
1.384                  0.9887594       -24.92453
1.388                  0.9886616       -25.04266
1.392                   0.988567       -25.16164
1.396                  0.9884751        -25.2815
1.4                    0.9883861       -25.40226
1.404                  0.9882995       -25.52395
1.408                  0.9882153        -25.6466
1.412                  0.9881331       -25.77023
1.416                  0.9880527       -25.89486
1.42                   0.9879738       -26.02052
1.424                  0.9878961       -26.14724
1.428                  0.9878194       -26.27502
1.432                  0.9877432       -26.40391
1.436                  0.9876673       -26.53391
1.44                   0.9875913       -26.66505
1.444                  0.9875147       -26.79735
1.448                  0.9874374       -26.93083
1.452                  0.9873588        -27.0655
1.456                  0.9872786       -27.20139
1.46                   0.9871964        -27.3385
1.464                  0.9871116       -27.47686
1.468                   0.987024       -27.61648
1.472                  0.9869329       -27.75737
1.476                  0.9868382       -27.89955
1.48                   0.9867393       -28.04303
1.484                  0.9866358        -28.1878
1.488                   0.986527        -28.3339
1.492                  0.9864128       -28.48133
1.496                  0.9862925       -28.63009
1.5                    0.9861657       -28.78018
1.504                  0.9860321       -28.93162
1.508                  0.9858913        -29.0844
1.512                  0.9857425       -29.23854
1.516                  0.9855856       -29.39403
1.52                     0.98542       -29.55088
1.524                  0.9852452       -29.70908
1.528                  0.9850611       -29.86864
1.532                  0.9848671       -30.02955
1.536                  0.9846627       -30.19181
1.54                   0.9844478       -30.35542
1.544                  0.9842217       -30.52038
1.548                  0.9839843       -30.68667
1.552                  0.9837352        -30.8543
1.556                  0.9834741       -31.02325
1.56                   0.9832003       -31.19353
1.564                  0.9829141       -31.36513
1.568                   0.982615       -31.53802
1.572                  0.9823025       -31.71222
1.576                  0.9819768       -31.88771
1.58                   0.9816373       -32.06448
1.584                  0.9812837       -32.24253
1.588                  0.9809164       -32.42184
1.592                  0.9805346       -32.60241
1.596                  0.9801387       -32.78422
1.6                    0.9797279       -32.96727
1.604                  0.9793028       -33.15156
1.608                  0.9788628       -33.33706
1.612                  0.9784081       -33.52378
1.616                  0.9779387       -33.71169
1.62                   0.9774544        -33.9008
1.624                  0.9769551       -34.09112
1.628                  0.9764413        -34.2826
1.632                  0.9759126       -34.47527
1.636                  0.9753692        -34.6691
1.64                   0.9748112       -34.86411
1.644                  0.9742385       -35.06028
1.648                  0.9736515       -35.25761
1.652                    0.97305       -35.45612
1.656                  0.9724346       -35.65577
1.66                    0.971805       -35.85658
1.664                  0.9711617       -36.05857
1.668                  0.9705047       -36.26171
1.672                  0.9698343       -36.46604
1.676                  0.9691506       -36.67154
1.68                   0.9684539       -36.87823
1.684                  0.9677444       -37.08613
1.688                  0.9670226       -37.29522
1.692                  0.9662882       -37.50554
1.696                  0.9655419        -37.7171
1.7                     0.964784       -37.92991
1.704                  0.9640143       -38.14399
1.708                  0.9632335       -38.35936
1.712                  0.9624417       -38.57604
1.716                  0.9616391       -38.79408
1.72                    0.960826       -39.01347
1.724                  0.9600028       -39.23425
1.728                  0.9591694       -39.45647
1.732                  0.9583264       -39.68013
1.736                  0.9574737       -39.90529
1.74                   0.9566117       -40.13198
1.744                  0.9557406       -40.36023
1.748                  0.9548606        -40.5901
1.752                  0.9539717       -40.82161
1.756                  0.9530742       -41.05482
1.76                   0.9521682       -41.28977
1.764                  0.9512537       -41.52652
1.768                  0.9503309       -41.76511
1.772                  0.9493997        -42.0056
1.776                  0.9484603       -42.24805
1.78                   0.9475127        -42.4925
1.784                  0.9465566       -42.73902
1.788                  0.9455922       -42.98768
1.792                  0.9446193       -43.23853
1.796                  0.9436379       -43.49164
1.8                    0.9426477       -43.74707
1.804                  0.9416485       -44.00489
1.808                    0.94064       -44.26518
1.812                  0.9396221       -44.52799
1.816                  0.9385942       -44.79342
1.82                   0.9375563       -45.06152
1.824                  0.9365079       -45.33237
1.828                  0.9354483       -45.60605
1.832                  0.9343772       -45.88264
1.836                  0.9332942       -46.16221
1.84                   0.9321984       -46.44484
1.844                  0.9310895       -46.73061
1.848                  0.9299666        -47.0196
1.852                  0.9288291        -47.3119
1.856                  0.9276762       -47.60757
1.86                   0.9265072       -47.90671
1.864                   0.925321       -48.20941
1.868                  0.9241172       -48.51571
1.872                  0.9228945       -48.82574
1.876                  0.9216519       -49.13956
1.88                   0.9203885       -49.45724
1.884                  0.9191033       -49.77889
1.888                  0.9177951       -50.10456
1.892                  0.9164629       -50.43436
1.896                  0.9151053       -50.76835
1.9                    0.9137211       -51.10662
1.904                  0.9123094       -51.44926
1.908                  0.9108685       -51.79631
1.912                  0.9093972        -52.1479
1.916                  0.9078943       -52.50407
1.92                   0.9063582        -52.8649
1.924                  0.9047876       -53.23047
1.928                   0.903181       -53.60087
1.932                  0.9015371       -53.97615
1.936                  0.8998541        -54.3564
1.94                   0.8981305       -54.74169
1.944                  0.8963652       -55.13208
1.948                  0.8945563       -55.52764
1.952                  0.8927023       -55.92844
1.956                  0.8908013       -56.33456
1.96                   0.8888523       -56.74604
1.964                  0.8868532       -57.16297
1.968                  0.8848027       -57.58539
1.972                   0.882699       -58.01337
1.976                  0.8805405       -58.44699
1.98                   0.8783255       -58.88629
1.984                  0.8760527       -59.33132
1.988                  0.8737201       -59.78217
1.992                  0.8713262       -60.23886
1.996                  0.8688695       -60.70148
2                      0.8663483       -61.17006
2.004                  0.8637611       -61.64466
2.008                  0.8611063       -62.12535
2.012                  0.8583822       -62.61216
2.016                  0.8555877       -63.10514
2.02                   0.8527209       -63.60437
2.024                  0.8497805       -64.10987
2.028                  0.8467649       -64.62171
2.032                   0.843673       -65.13993
2.036                  0.8405032        -65.6646
2.04                    0.837254       -66.19576
2.044                  0.8339243       -66.73344
2.048                  0.8305128       -67.27771
2.052                  0.8270183       -67.82862
2.056                  0.8234395       -68.38622
2.06                   0.8197754       -68.95058
2.064                  0.8160248       -69.52172
2.068                  0.8121867       -70.09971
2.072                    0.80826       -70.68461
2.076                   0.804244       -71.27647
2.08                   0.8001377       -71.87536
2.084                  0.7959401       -72.48132
2.088                  0.7916507       -73.09444
2.092                  0.7872686       -73.71477
2.096                  0.7827933       -74.34236
2.1                    0.7782242        -74.9773
2.104                  0.7735606       -75.61966
2.108                  0.7688023       -76.26951
2.112                  0.7639488       -76.92694
2.116                  0.7589999       -77.59202
2.12                   0.7539553       -78.26485
2.124                  0.7488147       -78.94551
2.128                  0.7435784       -79.63409
2.132                   0.738246        -80.3307
2.136                  0.7328178       -81.03545
2.14                   0.7272939       -81.74844
2.144                  0.7216747       -82.46979
2.148                  0.7159601       -83.19964
2.152                  0.7101509        -83.9381
2.156                  0.7042475       -84.68534
2.16                   0.6982504       -85.44147
2.164                  0.6921604       -86.20667
2.168                  0.6859781        -86.9811
2.172                  0.6797045       -87.76493
2.176                  0.6733403       -88.55836
2.18                   0.6668868       -89.36156
2.184                  0.6603451       -90.17476
2.188                  0.6537163       -90.99818
2.192                   0.647002       -91.83204
2.196                  0.6402032       -92.67661
2.2                    0.6333218       -93.53213
2.204                  0.6263595       -94.39891
2.208                  0.6193177       -95.27721
2.212                  0.6121985       -96.16738
2.216                  0.6050038       -97.06974
2.22                   0.5977357       -97.98465
2.224                  0.5903966       -98.91249
2.228                  0.5829886       -99.85365
2.232                  0.5755142       -100.8086
2.236                  0.5679759       -101.7777
2.24                   0.5603768       -102.7615
2.244                  0.5527193       -103.7606
2.248                  0.5450066       -104.7754
2.252                  0.5372419       -105.8065
2.256                  0.5294285       -106.8546
2.26                   0.5215697       -107.9203
2.264                  0.5136692       -109.0044
2.268                  0.5057308       -110.1074
2.272                  0.4977585       -111.2304
2.276                  0.4897563        -112.374
2.28                   0.4817288       -113.5392
2.284                  0.4736806       -114.7269
2.288                  0.4656162       -115.9382
2.292                  0.4575408       -117.1741
2.296                  0.4494595       -118.4357
2.3                     0.441378       -119.7243
2.304                  0.4333022       -121.0412
2.308                   0.425238       -122.3877
2.312                  0.4171918       -123.7652
2.316                  0.4091703       -125.1753
2.32                   0.4011807       -126.6196
2.324                  0.3932304       -128.0997
2.328                  0.3853272       -129.6174
2.332                  0.3774793       -131.1747
2.336                  0.3696957       -132.7734
2.34                   0.3619852       -134.4156
2.344                  0.3543576       -136.1034
2.348                  0.3468232        -137.839
2.352                  0.3393925       -139.6246