! TOUCHSTONE file generated by CST MICROWAVE STUDIO
! Date and time: Thu May 12 17:57:32 2022
! Project name: AppElm_antenne_dipole_FR4.cst
! Parameters = {L=38.8; e=0.035; f=2.45e+09; h=1.6; i=0.8; l1=4; lambda=122.449; ls=30; wl=1.7; ws=72}
! Header version: 2018
! Port assignment regex: !\s*Touchstone port\s*([0-9]+)\s*=\s*(CST MWS port|CST DS port)\s*([0-9]+|Zmin|Zmax)\s*\(\"(.*)\"\)(\s*mode\s*([0-9]+))?.*
! Touchstone port assignment:
! Touchstone port 1 = CST MWS port 1 ("")
# GHz S MA R 50
0                      0.9999096              -0
0.004                  0.9999093     -0.05500849
0.008                  0.9999084      -0.1100165
0.012                  0.9999073      -0.1650233
0.016                  0.9999054      -0.2200287
0.02                   0.9999032      -0.2750319
0.024                  0.9999005      -0.3300325
0.028                  0.9998971      -0.3850299
0.032                  0.9998935      -0.4400237
0.036                  0.9998893      -0.4950134
0.04                   0.9998845      -0.5499985
0.044                  0.9998794      -0.6049785
0.048                  0.9998736       -0.659953
0.052                  0.9998676      -0.7149212
0.056                   0.999861      -0.7698831
0.06                   0.9998541      -0.8248381
0.064                  0.9998467      -0.8797859
0.068                  0.9998388      -0.9347259
0.072                  0.9998306      -0.9896579
0.076                  0.9998221       -1.044581
0.08                   0.9998131       -1.099496
0.084                  0.9998037       -1.154402
0.088                  0.9997941       -1.209299
0.092                  0.9997839       -1.264186
0.096                  0.9997736       -1.319063
0.1                    0.9997629        -1.37393
0.104                   0.999752       -1.428787
0.108                  0.9997408       -1.483634
0.112                  0.9997293        -1.53847
0.116                  0.9997176       -1.593296
0.12                   0.9997056       -1.648111
0.124                  0.9996935       -1.702917
0.128                  0.9996812       -1.757712
0.132                  0.9996688       -1.812496
0.136                  0.9996561        -1.86727
0.14                   0.9996435       -1.922035
0.144                  0.9996308        -1.97679
0.148                  0.9996179       -2.031536
0.152                   0.999605       -2.086273
0.156                  0.9995921       -2.141001
0.16                   0.9995793       -2.195721
0.164                  0.9995665       -2.250433
0.168                  0.9995536       -2.305139
0.172                   0.999541       -2.359838
0.176                  0.9995283       -2.414531
0.18                   0.9995159       -2.469219
0.184                  0.9995035       -2.523904
0.188                  0.9994914       -2.578585
0.192                  0.9994794       -2.633264
0.196                  0.9994677       -2.687942
0.2                    0.9994562        -2.74262
0.204                  0.9994451       -2.797298
0.208                  0.9994343       -2.851979
0.212                  0.9994237       -2.906664
0.216                  0.9994135       -2.961353
0.22                   0.9994038       -3.016049
0.224                  0.9993944       -3.070753
0.228                  0.9993854       -3.125466
0.232                  0.9993769        -3.18019
0.236                  0.9993689       -3.234927
0.24                   0.9993614       -3.289678
0.244                  0.9993544       -3.344446
0.248                  0.9993478       -3.399233
0.252                  0.9993419       -3.454039
0.256                  0.9993366       -3.508868
0.26                   0.9993318       -3.563722
0.264                  0.9993277       -3.618602
0.268                  0.9993241       -3.673511
0.272                  0.9993213        -3.72845
0.276                  0.9993189       -3.783425
0.28                   0.9993174       -3.838434
0.284                  0.9993164       -3.893482
0.288                  0.9993162       -3.948571
0.292                  0.9993167       -4.003702
0.296                  0.9993179        -4.05888
0.3                    0.9993198       -4.114107
0.304                  0.9993224       -4.169384
0.308                  0.9993257       -4.224717
0.312                  0.9993297       -4.280104
0.316                  0.9993344       -4.335552
0.32                   0.9993399       -4.391061
0.324                  0.9993459       -4.446635
0.328                  0.9993528       -4.502277
0.332                  0.9993602        -4.55799
0.336                  0.9993685       -4.613775
0.34                   0.9993773       -4.669636
0.344                  0.9993869       -4.725575
0.348                   0.999397       -4.781597
0.352                  0.9994078       -4.837702
0.356                  0.9994192       -4.893893
0.36                   0.9994312       -4.950174
0.364                  0.9994438       -5.006547
0.368                  0.9994569       -5.063015
0.372                  0.9994705        -5.11958
0.376                  0.9994845       -5.176245
0.38                   0.9994991       -5.233012
0.384                  0.9995141       -5.289883
0.388                  0.9995294       -5.346861
0.392                  0.9995453       -5.403948
0.396                  0.9995614       -5.461146
0.4                    0.9995778       -5.518457
0.404                  0.9995943       -5.575884
0.408                  0.9996112       -5.633428
0.412                  0.9996283        -5.69109
0.416                  0.9996454       -5.748874
0.42                   0.9996628       -5.806779
0.424                    0.99968        -5.86481
0.428                  0.9996974       -5.922964
0.432                  0.9997147       -5.981245
0.436                   0.999732       -6.039654
0.44                    0.999749        -6.09819
0.444                  0.9997659       -6.156858
0.448                  0.9997826       -6.215655
0.452                   0.999799       -6.274584
0.456                  0.9998152       -6.333643
0.46                   0.9998309       -6.392835
0.464                  0.9998462        -6.45216
0.468                   0.999861       -6.511616
0.472                  0.9998755       -6.571205
0.476                  0.9998892       -6.630926
0.48                   0.9999024        -6.69078
0.484                   0.999915       -6.750764
0.488                  0.9999267        -6.81088
0.492                  0.9999379       -6.871128
0.496                  0.9999481       -6.931504
0.5                    0.9999576        -6.99201
0.504                  0.9999663       -7.052642
0.508                   0.999974       -7.113402
0.512                  0.9999808       -7.174287
0.516                  0.9999867       -7.235296
0.52                   0.9999915       -7.296429
0.524                  0.9999952       -7.357681
0.528                  0.9999979       -7.419053
0.532                  0.9999994       -7.480543
0.536                          1       -7.542148
0.54                   0.9999992       -7.603868
0.544                  0.9999973         -7.6657
0.548                  0.9999944       -7.727639
0.552                  0.9999901       -7.789688
0.556                  0.9999846        -7.85184
0.56                   0.9999778       -7.914097
0.564                  0.9999698       -7.976454
0.568                  0.9999606       -8.038909
0.572                  0.9999501        -8.10146
0.576                  0.9999384       -8.164105
0.58                   0.9999255       -8.226841
0.584                  0.9999114       -8.289664
0.588                  0.9998959       -8.352575
0.592                  0.9998791        -8.41557
0.596                  0.9998613       -8.478647
0.6                    0.9998423       -8.541803
0.604                  0.9998221       -8.605036
0.608                  0.9998007       -8.668343
0.612                  0.9997782       -8.731722
0.616                  0.9997547       -8.795174
0.62                   0.9997302       -8.858693
0.624                  0.9997046        -8.92228
0.628                   0.999678        -8.98593
0.632                  0.9996505       -9.049646
0.636                  0.9996221       -9.113421
0.64                   0.9995928       -9.177258
0.644                  0.9995628       -9.241154
0.648                  0.9995322       -9.305104
0.652                  0.9995007       -9.369115
0.656                  0.9994687       -9.433181
0.66                   0.9994361       -9.497302
0.664                  0.9994031       -9.561478
0.668                  0.9993695       -9.625709
0.672                  0.9993356       -9.689992
0.676                  0.9993014       -9.754331
0.68                    0.999267       -9.818724
0.684                  0.9992324       -9.883173
0.688                  0.9991977       -9.947678
0.692                  0.9991629       -10.01224
0.696                  0.9991283       -10.07686
0.7                    0.9990937       -10.14154
0.704                  0.9990593       -10.20628
0.708                  0.9990251       -10.27108
0.712                  0.9989914       -10.33594
0.716                  0.9989579       -10.40088
0.72                    0.998925       -10.46588
0.724                  0.9988927       -10.53096
0.728                   0.998861       -10.59611
0.732                  0.9988298       -10.66134
0.736                  0.9987995       -10.72665
0.74                     0.99877       -10.79205
0.744                  0.9987414       -10.85754
0.748                  0.9987137       -10.92312
0.752                   0.998687        -10.9888
0.756                  0.9986614       -11.05458
0.76                   0.9986368       -11.12047
0.764                  0.9986135       -11.18647
0.768                  0.9985913       -11.25259
0.772                  0.9985705       -11.31884
0.776                  0.9985509       -11.38521
0.78                   0.9985327       -11.45171
0.784                  0.9985157       -11.51836
0.788                  0.9985004       -11.58515
0.792                  0.9984863        -11.6521
0.796                  0.9984738        -11.7192
0.8                    0.9984628       -11.78647
0.804                  0.9984532       -11.85391
0.808                  0.9984451       -11.92153
0.812                  0.9984385       -11.98933
0.816                  0.9984335       -12.05733
0.82                     0.99843       -12.12552
0.824                   0.998428       -12.19392
0.828                  0.9984274       -12.26253
0.832                  0.9984283       -12.33137
0.836                  0.9984308       -12.40042
0.84                   0.9984346       -12.46971
0.844                  0.9984398       -12.53924
0.848                  0.9984464       -12.60902
0.852                  0.9984542       -12.67905
0.856                  0.9984634       -12.74934
0.86                   0.9984737        -12.8199
0.864                  0.9984852       -12.89073
0.868                  0.9984979       -12.96185
0.872                  0.9985115       -13.03325
0.876                  0.9985261       -13.10494
0.88                   0.9985416       -13.17692
0.884                  0.9985579       -13.24922
0.888                  0.9985749       -13.32182
0.892                  0.9985926       -13.39474
0.896                  0.9986108       -13.46798
0.9                    0.9986294       -13.54155
0.904                  0.9986485       -13.61544
0.908                  0.9986678       -13.68967
0.912                  0.9986872       -13.76425
0.916                  0.9987067       -13.83916
0.92                   0.9987261       -13.91442
0.924                  0.9987452       -13.99003
0.928                  0.9987643         -14.066
0.932                  0.9987828       -14.14232
0.936                  0.9988009         -14.219
0.94                   0.9988183       -14.29605
0.944                   0.998835       -14.37346
0.948                  0.9988508       -14.45123
0.952                  0.9988657       -14.52937
0.956                  0.9988794       -14.60788
0.96                   0.9988918       -14.68676
0.964                   0.998903         -14.766
0.968                  0.9989126       -14.84562
0.972                  0.9989207       -14.92561
0.976                  0.9989272       -15.00596
0.98                   0.9989318       -15.08669
0.984                  0.9989345       -15.16777
0.988                  0.9989351       -15.24923
0.992                  0.9989337       -15.33105
0.996                    0.99893       -15.41323
1                       0.998924       -15.49577
1.004                  0.9989156       -15.57866
1.008                  0.9989047       -15.66192
1.012                  0.9988912       -15.74552
1.016                  0.9988751       -15.82947
1.02                   0.9988561       -15.91376
1.024                  0.9988342       -15.99839
1.028                  0.9988097       -16.08336
1.032                   0.998782       -16.16866
1.036                  0.9987513       -16.25431
1.04                   0.9987177       -16.34026
1.044                  0.9986808       -16.42654
1.048                  0.9986408       -16.51312
1.052                  0.9985977       -16.60003
1.056                  0.9985514       -16.68723
1.06                   0.9985017       -16.77474
1.064                  0.9984489       -16.86255
1.068                  0.9983929       -16.95063
1.072                  0.9983336       -17.03902
1.076                   0.998271       -17.12765
1.08                   0.9982053       -17.21663
1.084                  0.9981364       -17.30583
1.088                  0.9980644       -17.39528
1.092                  0.9979891       -17.48503
1.096                  0.9979108       -17.57502
1.1                    0.9978295       -17.66526
1.104                  0.9977452       -17.75575
1.108                  0.9976581       -17.84648
1.112                   0.997568       -17.93746
1.116                  0.9974753       -18.02868
1.12                   0.9973798       -18.12013
1.124                  0.9972817       -18.21181
1.128                  0.9971812       -18.30372
1.132                  0.9970783       -18.39587
1.136                   0.996973       -18.48823
1.14                   0.9968657       -18.58082
1.144                  0.9967563       -18.67363
1.148                  0.9966449       -18.76667
1.152                  0.9965319       -18.85992
1.156                   0.996417        -18.9534
1.16                   0.9963007        -19.0471
1.164                  0.9961829       -19.14102
1.168                  0.9960639       -19.23517
1.172                  0.9959438       -19.32954
1.176                  0.9958228       -19.42414
1.18                   0.9957009       -19.51898
1.184                  0.9955783       -19.61405
1.188                  0.9954552       -19.70936
1.192                  0.9953317       -19.80492
1.196                   0.995208       -19.90073
1.2                    0.9950843       -19.99679
1.204                  0.9949605       -20.09311
1.208                   0.994837        -20.1897
1.212                  0.9947139       -20.28657
1.216                  0.9945912       -20.38373
1.22                   0.9944692       -20.48118
1.224                  0.9943481       -20.57893
1.228                  0.9942278       -20.67698
1.232                  0.9941086       -20.77537
1.236                  0.9939905       -20.87408
1.24                   0.9938737       -20.97315
1.244                  0.9937583       -21.07256
1.248                  0.9936445       -21.17235
1.252                  0.9935322       -21.27251
1.256                  0.9934215       -21.37307
1.26                   0.9933127       -21.47404
1.264                  0.9932058       -21.57543
1.268                  0.9931007       -21.67726
1.272                  0.9929977       -21.77954
1.276                  0.9928966       -21.88229
1.28                   0.9927978       -21.98552
1.284                  0.9927009       -22.08925
1.288                  0.9926063        -22.1935
1.292                  0.9925138       -22.29828
1.296                  0.9924234        -22.4036
1.3                    0.9923353       -22.50949
1.304                  0.9922491       -22.61597
1.308                  0.9921652       -22.72305
1.312                  0.9920833       -22.83075
1.316                  0.9920033       -22.93909
1.32                   0.9919253       -23.04808
1.324                  0.9918493       -23.15774
1.328                  0.9917749       -23.26809
1.332                  0.9917022       -23.37916
1.336                  0.9916312       -23.49094
1.34                   0.9915616       -23.60348
1.344                  0.9914933       -23.71677
1.348                  0.9914262       -23.83085
1.352                  0.9913601       -23.94572
1.356                  0.9912949        -24.0614
1.36                   0.9912303       -24.17792
1.364                  0.9911663       -24.29528
1.368                  0.9911025       -24.41351
1.372                  0.9910388       -24.53262
1.376                   0.990975       -24.65262
1.38                   0.9909108       -24.77354
1.384                  0.9908461       -24.89538
1.388                  0.9907805       -25.01816
1.392                  0.9907137        -25.1419
1.396                  0.9906457        -25.2666
1.4                     0.990576       -25.39228
1.404                  0.9905045       -25.51896
1.408                  0.9904309       -25.64665
1.412                  0.9903547       -25.77534
1.416                  0.9902758       -25.90507
1.42                   0.9901938       -26.03584
1.424                  0.9901086       -26.16765
1.428                  0.9900196       -26.30052
1.432                  0.9899267       -26.43446
1.436                  0.9898295       -26.56947
1.44                   0.9897278       -26.70556
1.444                  0.9896211       -26.84273
1.448                  0.9895094         -26.981
1.452                  0.9893921       -27.12036
1.456                  0.9892691       -27.26083
1.46                   0.9891398        -27.4024
1.464                  0.9890042       -27.54508
1.468                  0.9888617       -27.68888
1.472                  0.9887124       -27.83379
1.476                  0.9885558       -27.97981
1.48                   0.9883915       -28.12696
1.484                  0.9882194       -28.27521
1.488                   0.988039       -28.42459
1.492                  0.9878504       -28.57509
1.496                  0.9876529       -28.72669
1.5                    0.9874466       -28.87942
1.504                   0.987231       -29.03325
1.508                  0.9870061        -29.1882
1.512                  0.9867714       -29.34425
1.516                   0.986527        -29.5014
1.52                   0.9862724       -29.65967
1.524                  0.9860077       -29.81902
1.528                  0.9857324       -29.97946
1.532                  0.9854465         -30.141
1.536                  0.9851499       -30.30361
1.54                   0.9848424       -30.46731
1.544                  0.9845238       -30.63208
1.548                  0.9841942       -30.79792
1.552                  0.9838532       -30.96483
1.556                  0.9835009        -31.1328
1.56                   0.9831372       -31.30183
1.564                   0.982762       -31.47191
1.568                  0.9823752       -31.64304
1.572                   0.981977       -31.81521
1.576                   0.981567       -31.98842
1.58                   0.9811454       -32.16268
1.584                  0.9807123       -32.33797
1.588                  0.9802677       -32.51429
1.592                  0.9798115       -32.69165
1.596                  0.9793439       -32.87003
1.6                    0.9788648       -33.04945
1.604                  0.9783744        -33.2299
1.608                  0.9778726       -33.41138
1.612                  0.9773599       -33.59389
1.616                  0.9768358       -33.77745
1.62                    0.976301       -33.96203
1.624                  0.9757554       -34.14767
1.628                  0.9751991       -34.33435
1.632                  0.9746322       -34.52209
1.636                   0.974055       -34.71089
1.64                   0.9734676       -34.90077
1.644                  0.9728703       -35.09172
1.648                  0.9722629       -35.28378
1.652                   0.971646       -35.47694
1.656                  0.9710196       -35.67122
1.66                   0.9703839       -35.86663
1.664                  0.9697392       -36.06319
1.668                  0.9690854       -36.26092
1.672                  0.9684228       -36.45985
1.676                   0.967752       -36.65998
1.68                   0.9670728       -36.86134
1.684                  0.9663854       -37.06396
1.688                  0.9656899       -37.26787
1.692                  0.9649867       -37.47308
1.696                  0.9642759       -37.67962
1.7                    0.9635576       -37.88754
1.704                   0.962832       -38.09686
1.708                  0.9620992        -38.3076
1.712                  0.9613595       -38.51982
1.716                  0.9606126       -38.73354
1.72                   0.9598591       -38.94881
1.724                  0.9590987       -39.16566
1.728                  0.9583318       -39.38414
1.732                   0.957558       -39.60428
1.736                   0.956778       -39.82613
1.74                   0.9559912       -40.04975
1.744                  0.9551979       -40.27518
1.748                  0.9543978       -40.50247
1.752                  0.9535912       -40.73166
1.756                  0.9527778       -40.96281
1.76                   0.9519575       -41.19598
1.764                  0.9511303       -41.43122
1.768                  0.9502959       -41.66859
1.772                  0.9494541       -41.90814
1.776                  0.9486047       -42.14994
1.78                   0.9477475       -42.39404
1.784                  0.9468822       -42.64051
1.788                  0.9460084       -42.88942
1.792                   0.945126        -43.1408
1.796                  0.9442343       -43.39475
1.8                     0.943333       -43.65132
1.804                  0.9424216       -43.91058
1.808                  0.9414999       -44.17259
1.812                   0.940567       -44.43743
1.816                  0.9396225       -44.70516
1.82                   0.9386659       -44.97585
1.824                  0.9376964       -45.24957
1.828                  0.9367133        -45.5264
1.832                   0.935716        -45.8064
1.836                  0.9347038       -46.08963
1.84                    0.933676       -46.37617
1.844                  0.9326314        -46.6661
1.848                  0.9315693       -46.95948
1.852                  0.9304891       -47.25639
1.856                  0.9293897       -47.55689
1.86                     0.92827       -47.86105
1.864                  0.9271292       -48.16896
1.868                  0.9259661       -48.48066
1.872                  0.9247798       -48.79624
1.876                  0.9235691       -49.11577
1.88                   0.9223329       -49.43932
1.884                    0.92107       -49.76695
1.888                  0.9197794       -50.09872
1.892                  0.9184597       -50.43471
1.896                  0.9171097       -50.77499
1.9                    0.9157281       -51.11963
1.904                  0.9143137       -51.46866
1.908                  0.9128653       -51.82218
1.912                  0.9113812       -52.18025
1.916                  0.9098603       -52.54293
1.92                   0.9083011       -52.91027
1.924                  0.9067025       -53.28234
1.928                  0.9050627        -53.6592
1.932                  0.9033803       -54.04091
1.936                  0.9016542       -54.42753
1.94                   0.8998827       -54.81911
1.944                  0.8980644        -55.2157
1.948                  0.8961978       -55.61739
1.952                  0.8942815        -56.0242
1.956                  0.8923139       -56.43619
1.96                   0.8902938       -56.85341
1.964                  0.8882193       -57.27594
1.968                  0.8860892        -57.7038
1.972                  0.8839019       -58.13705
1.976                   0.881656       -58.57574
1.98                     0.87935       -59.01993
1.984                  0.8769825       -59.46965
1.988                  0.8745521       -59.92496
1.992                  0.8720572        -60.3859
1.996                  0.8694964       -60.85253
2                      0.8668684       -61.32488
2.004                  0.8641718         -61.803
2.008                  0.8614052       -62.28694
2.012                  0.8585673       -62.77674
2.016                  0.8556568       -63.27245
2.02                   0.8526724       -63.77411
2.024                  0.8496128       -64.28176
2.028                  0.8464766       -64.79547
2.032                  0.8432629       -65.31526
2.036                  0.8399705        -65.8412
2.04                   0.8365981        -66.3733
2.044                  0.8331447       -66.91164
2.048                  0.8296092       -67.45626
2.052                  0.8259905       -68.00719
2.056                  0.8222879       -68.56451
2.06                   0.8185002       -69.12824
2.064                  0.8146266       -69.69846
2.068                  0.8106664        -70.2752
2.072                  0.8066185       -70.85852
2.076                  0.8024823        -71.4485
2.08                   0.7982573       -72.04517
2.084                  0.7939426       -72.64861
2.088                  0.7895378       -73.25884
2.092                  0.7850422       -73.87599
2.096                  0.7804554       -74.50008
2.1                    0.7757771       -75.13122
2.104                  0.7710069       -75.76944
2.108                  0.7661444       -76.41485
2.112                  0.7611895       -77.06752
2.116                  0.7561419       -77.72755
2.12                   0.7510017       -78.39501
2.124                  0.7457687       -79.06999
2.128                   0.740443        -79.7526
2.132                  0.7350247       -80.44297
2.136                   0.729514       -81.14118
2.14                   0.7239112       -81.84734
2.144                  0.7182165       -82.56159
2.148                  0.7124304       -83.28406
2.152                  0.7065534       -84.01487
2.156                  0.7005858       -84.75419
2.16                   0.6945287       -85.50215
2.164                  0.6883825       -86.25891
2.168                   0.682148       -87.02465
2.172                  0.6758262       -87.79958
2.176                  0.6694179       -88.58382
2.18                   0.6629242       -89.37764
2.184                  0.6563464       -90.18122
2.188                  0.6496856       -90.99479
2.192                   0.642943       -91.81861
2.196                  0.6361203       -92.65292
2.2                    0.6292188       -93.49799
2.204                  0.6222401        -94.3541
2.208                  0.6151861       -95.22156
2.212                  0.6080583        -96.1007
2.216                  0.6008589       -96.99186
2.22                   0.5935897       -97.89539
2.224                  0.5862531        -98.8117
2.228                  0.5788511       -99.74118
2.232                  0.5713862       -100.6843
2.236                  0.5638608       -101.6414
2.24                   0.5562774       -102.6131
2.244                  0.5486391          -103.6
2.248                  0.5409484       -104.6024
2.252                  0.5332086       -105.6211
2.256                  0.5254226       -106.6566
2.26                    0.517594       -107.7096
2.264                   0.509726       -108.7809
2.268                  0.5018224       -109.8712
2.272                   0.493887       -110.9812
2.276                  0.4859237       -112.1119
2.28                   0.4779368       -113.2641
2.284                  0.4699308       -114.4388
2.288                    0.46191        -115.637
2.292                  0.4538795       -116.8598
2.296                  0.4458443       -118.1084
2.3                    0.4378097       -119.3839
2.304                  0.4297814       -120.6878
2.308                  0.4217652       -122.0212
2.312                  0.4137674       -123.3858
2.316                  0.4057945       -124.7831
2.32                   0.3978533       -126.2146
2.324                  0.3899512       -127.6821
2.328                  0.3820958       -129.1874
2.332                  0.3742951       -130.7324
2.336                  0.3665578       -132.3191
2.34                   0.3588928       -133.9495
2.344                  0.3513095       -135.6258
2.348                   0.343818       -137.3503
2.352                  0.3364289       -139.1252