! TOUCHSTONE file generated by CST MICROWAVE STUDIO
! Date and time: Thu May 12 17:57:36 2022
! Project name: AppElm_antenne_dipole_FR4.cst
! Parameters = {L=38.8; e=0.035; f=2.45e+09; h=1.6; i=0.8; l1=4; lambda=122.449; ls=30; wl=1.7; ws=92}
! Header version: 2018
! Port assignment regex: !\s*Touchstone port\s*([0-9]+)\s*=\s*(CST MWS port|CST DS port)\s*([0-9]+|Zmin|Zmax)\s*\(\"(.*)\"\)(\s*mode\s*([0-9]+))?.*
! Touchstone port assignment:
! Touchstone port 1 = CST MWS port 1 ("")
# GHz S MA R 50
0                      0.9999156              -0
0.004                  0.9999153     -0.05502007
0.008                  0.9999146      -0.1100396
0.012                  0.9999133      -0.1650581
0.016                  0.9999115       -0.220075
0.02                   0.9999093      -0.2750898
0.024                  0.9999066      -0.3301019
0.028                  0.9999032       -0.385111
0.032                  0.9998996      -0.4401163
0.036                  0.9998953      -0.4951175
0.04                   0.9998906      -0.5501141
0.044                  0.9998855      -0.6051056
0.048                  0.9998797      -0.6600915
0.052                  0.9998737      -0.7150714
0.056                  0.9998672      -0.7700448
0.06                   0.9998602      -0.8250112
0.064                  0.9998527      -0.8799704
0.068                   0.999845      -0.9349219
0.072                  0.9998368      -0.9898654
0.076                  0.9998283         -1.0448
0.08                   0.9998191       -1.099727
0.084                  0.9998099       -1.154644
0.088                  0.9998002       -1.209552
0.092                  0.9997901        -1.26445
0.096                  0.9997799       -1.319339
0.1                    0.9997691       -1.374218
0.104                  0.9997583       -1.429087
0.108                  0.9997471       -1.483945
0.112                  0.9997357       -1.538793
0.116                   0.999724       -1.593631
0.12                   0.9997121       -1.648458
0.124                  0.9996999       -1.703275
0.128                  0.9996877       -1.758083
0.132                  0.9996754       -1.812879
0.136                  0.9996627       -1.867666
0.14                   0.9996501       -1.922443
0.144                  0.9996374       -1.977211
0.148                  0.9996245       -2.031969
0.152                  0.9996118       -2.086718
0.156                   0.999599       -2.141459
0.16                   0.9995861       -2.196193
0.164                  0.9995733       -2.250919
0.168                  0.9995607       -2.305637
0.172                  0.9995479       -2.360351
0.176                  0.9995354       -2.415058
0.18                   0.9995229       -2.469761
0.184                  0.9995107        -2.52446
0.188                  0.9994987       -2.579156
0.192                  0.9994867        -2.63385
0.196                  0.9994751       -2.688543
0.2                    0.9994637       -2.743236
0.204                  0.9994526       -2.797931
0.208                  0.9994418       -2.852628
0.212                  0.9994313       -2.907329
0.216                  0.9994212       -2.962035
0.22                   0.9994115       -3.016748
0.224                  0.9994023       -3.071469
0.228                  0.9993933         -3.1262
0.232                  0.9993849       -3.180942
0.236                  0.9993769       -3.235698
0.24                   0.9993694       -3.290468
0.244                  0.9993624       -3.345255
0.248                   0.999356       -3.400061
0.252                  0.9993501       -3.454887
0.256                  0.9993448       -3.509736
0.26                     0.99934        -3.56461
0.264                  0.9993359        -3.61951
0.268                  0.9993324        -3.67444
0.272                  0.9993295       -3.729402
0.276                  0.9993273       -3.784397
0.28                   0.9993257       -3.839428
0.284                  0.9993248       -3.894498
0.288                  0.9993246       -3.949609
0.292                  0.9993251       -4.004764
0.296                  0.9993262       -4.059965
0.3                    0.9993281       -4.115214
0.304                  0.9993306       -4.170515
0.308                  0.9993339       -4.225869
0.312                  0.9993379       -4.281281
0.316                  0.9993426       -4.336751
0.32                   0.9993479       -4.392285
0.324                  0.9993541       -4.447883
0.328                  0.9993608       -4.503548
0.332                  0.9993682       -4.559284
0.336                  0.9993763       -4.615093
0.34                    0.999385       -4.670978
0.344                  0.9993944       -4.726942
0.348                  0.9994046       -4.782985
0.352                  0.9994152       -4.839114
0.356                  0.9994264        -4.89533
0.36                   0.9994383       -4.951634
0.364                  0.9994508       -5.008031
0.368                  0.9994637       -5.064521
0.372                  0.9994772       -5.121109
0.376                  0.9994912       -5.177795
0.38                   0.9995055       -5.234585
0.384                  0.9995203       -5.291478
0.388                  0.9995355       -5.348477
0.392                  0.9995511       -5.405586
0.396                  0.9995669       -5.462805
0.4                    0.9995831       -5.520136
0.404                  0.9995996       -5.577583
0.408                  0.9996163       -5.635146
0.412                  0.9996331       -5.692828
0.416                  0.9996501        -5.75063
0.42                   0.9996671       -5.808554
0.424                  0.9996843       -5.866601
0.428                  0.9997013       -5.924773
0.432                  0.9997185        -5.98307
0.436                  0.9997355       -6.041495
0.44                   0.9997523       -6.100049
0.444                   0.999769        -6.15873
0.448                  0.9997855       -6.217542
0.452                  0.9998017       -6.276484
0.456                  0.9998176       -6.335558
0.46                   0.9998331       -6.394763
0.464                  0.9998483         -6.4541
0.468                  0.9998629       -6.513569
0.472                   0.999877       -6.573169
0.476                  0.9998905       -6.632902
0.48                   0.9999037       -6.692765
0.484                  0.9999159       -6.752761
0.488                  0.9999276       -6.812887
0.492                  0.9999386       -6.873143
0.496                  0.9999488       -6.933528
0.5                    0.9999582       -6.994042
0.504                  0.9999667       -7.054684
0.508                  0.9999743       -7.115451
0.512                   0.999981       -7.176345
0.516                  0.9999868       -7.237362
0.52                   0.9999915       -7.298502
0.524                  0.9999952       -7.359762
0.528                  0.9999979       -7.421143
0.532                  0.9999994        -7.48264
0.536                          1       -7.544253
0.54                   0.9999992       -7.605981
0.544                  0.9999974        -7.66782
0.548                  0.9999943       -7.729767
0.552                  0.9999903       -7.791823
0.556                  0.9999848       -7.853986
0.56                   0.9999781       -7.916251
0.564                  0.9999704       -7.978619
0.568                  0.9999612       -8.041084
0.572                  0.9999508       -8.103647
0.576                  0.9999392       -8.166303
0.58                   0.9999266        -8.22905
0.584                  0.9999125       -8.291889
0.588                  0.9998973       -8.354814
0.592                  0.9998809       -8.417822
0.596                  0.9998632       -8.480915
0.6                    0.9998445       -8.544089
0.604                  0.9998245       -8.607339
0.608                  0.9998035       -8.670666
0.612                  0.9997811       -8.734067
0.616                  0.9997579       -8.797541
0.62                   0.9997338       -8.861083
0.624                  0.9997085       -8.924695
0.628                  0.9996822       -8.988372
0.632                  0.9996551       -9.052115
0.636                   0.999627       -9.115918
0.64                    0.999598       -9.179787
0.644                  0.9995685       -9.243713
0.648                  0.9995381       -9.307701
0.652                   0.999507       -9.371747
0.656                  0.9994754        -9.43585
0.66                   0.9994432        -9.50001
0.664                  0.9994104       -9.564227
0.668                  0.9993773       -9.628501
0.672                  0.9993438       -9.692831
0.676                  0.9993098       -9.757217
0.68                   0.9992758       -9.821659
0.684                  0.9992415       -9.886157
0.688                  0.9992071       -9.950716
0.692                  0.9991727       -10.01533
0.696                  0.9991383       -10.08001
0.7                    0.9991039       -10.14475
0.704                  0.9990698       -10.20954
0.708                  0.9990359       -10.27441
0.712                  0.9990023       -10.33934
0.716                   0.998969       -10.40434
0.72                   0.9989363       -10.46941
0.724                   0.998904       -10.53455
0.728                  0.9988724       -10.59978
0.732                  0.9988414       -10.66508
0.736                  0.9988111       -10.73046
0.74                   0.9987816       -10.79594
0.744                  0.9987529        -10.8615
0.748                  0.9987252       -10.92716
0.752                  0.9986984       -10.99292
0.756                  0.9986727       -11.05878
0.76                    0.998648       -11.12475
0.764                  0.9986244       -11.19084
0.768                  0.9986019       -11.25704
0.772                  0.9985807       -11.32336
0.776                  0.9985609       -11.38982
0.78                   0.9985423       -11.45641
0.784                   0.998525       -11.52314
0.788                  0.9985091       -11.59002
0.792                  0.9984946       -11.65705
0.796                  0.9984814       -11.72424
0.8                    0.9984697        -11.7916
0.804                  0.9984596       -11.85912
0.808                  0.9984507       -11.92683
0.812                  0.9984435       -11.99472
0.816                  0.9984377       -12.06279
0.82                   0.9984334       -12.13107
0.824                  0.9984304       -12.19955
0.828                   0.998429       -12.26825
0.832                  0.9984289       -12.33716
0.836                  0.9984304        -12.4063
0.84                   0.9984332       -12.47567
0.844                  0.9984373       -12.54527
0.848                  0.9984426       -12.61513
0.852                  0.9984495       -12.68523
0.856                  0.9984574        -12.7556
0.86                   0.9984665       -12.82623
0.864                  0.9984768       -12.89713
0.868                  0.9984881       -12.96831
0.872                  0.9985005       -13.03977
0.876                  0.9985137       -13.11152
0.88                   0.9985278       -13.18357
0.884                  0.9985427       -13.25592
0.888                  0.9985583       -13.32858
0.892                  0.9985746       -13.40155
0.896                  0.9985913       -13.47485
0.9                    0.9986086       -13.54846
0.904                   0.998626        -13.6224
0.908                  0.9986439       -13.69668
0.912                  0.9986617       -13.77129
0.916                  0.9986798       -13.84624
0.92                   0.9986978       -13.92153
0.924                  0.9987155       -13.99718
0.928                   0.998733       -14.07318
0.932                  0.9987501       -14.14953
0.936                  0.9987667       -14.22623
0.94                   0.9987827        -14.3033
0.944                  0.9987979       -14.38072
0.948                  0.9988122       -14.45852
0.952                  0.9988257       -14.53667
0.956                  0.9988381       -14.61519
0.96                   0.9988492       -14.69408
0.964                  0.9988591       -14.77333
0.968                  0.9988675       -14.85296
0.972                  0.9988744       -14.93295
0.976                  0.9988798        -15.0133
0.98                   0.9988831       -15.09403
0.984                  0.9988848       -15.17511
0.988                  0.9988844       -15.25657
0.992                  0.9988819       -15.33838
0.996                  0.9988774       -15.42056
1                      0.9988704       -15.50309
1.004                  0.9988613       -15.58598
1.008                  0.9988496       -15.66922
1.012                  0.9988353       -15.75282
1.016                  0.9988184       -15.83676
1.02                   0.9987988       -15.92105
1.024                  0.9987765       -16.00568
1.028                  0.9987514       -16.09063
1.032                  0.9987233       -16.17593
1.036                  0.9986924       -16.26158
1.04                   0.9986583        -16.3475
1.044                  0.9986212       -16.43378
1.048                  0.9985811       -16.52039
1.052                  0.9985378       -16.60727
1.056                  0.9984914        -16.6945
1.06                   0.9984419       -16.78201
1.064                  0.9983891       -16.86982
1.068                  0.9983332       -16.95793
1.072                  0.9982741       -17.04634
1.076                  0.9982118       -17.13499
1.08                   0.9981464       -17.22395
1.084                  0.9980778       -17.31318
1.088                  0.9980062       -17.40268
1.092                  0.9979314       -17.49246
1.096                  0.9978536       -17.58248
1.1                    0.9977727       -17.67275
1.104                  0.9976891       -17.76332
1.108                  0.9976025        -17.8541
1.112                  0.9975131       -17.94514
1.116                  0.9974209       -18.03644
1.12                   0.9973262       -18.12797
1.124                  0.9972288       -18.21971
1.128                  0.9971289       -18.31171
1.132                  0.9970267       -18.40394
1.136                  0.9969223       -18.49639
1.14                   0.9968156       -18.58909
1.144                   0.996707       -18.68201
1.148                  0.9965963       -18.77516
1.152                  0.9964839       -18.86853
1.156                  0.9963696       -18.96214
1.16                    0.996254       -19.05598
1.164                  0.9961369       -19.15004
1.168                  0.9960184       -19.24434
1.172                  0.9958988       -19.33887
1.176                  0.9957782       -19.43364
1.18                   0.9956567       -19.52864
1.184                  0.9955344        -19.6239
1.188                  0.9954116       -19.71939
1.192                  0.9952884       -19.81514
1.196                  0.9951647       -19.91114
1.2                    0.9950409       -20.00741
1.204                  0.9949172       -20.10395
1.208                  0.9947934       -20.20076
1.212                    0.99467       -20.29786
1.216                   0.994547       -20.39524
1.22                   0.9944245       -20.49293
1.224                  0.9943026       -20.59092
1.228                  0.9941815       -20.68923
1.232                  0.9940615       -20.78787
1.236                  0.9939423       -20.88684
1.24                   0.9938243       -20.98617
1.244                  0.9937075       -21.08585
1.248                  0.9935921       -21.18591
1.252                  0.9934781       -21.28635
1.256                  0.9933657       -21.38719
1.26                   0.9932548       -21.48844
1.264                  0.9931456       -21.59012
1.268                  0.9930383       -21.69224
1.272                  0.9929326       -21.79481
1.276                   0.992829       -21.89785
1.28                   0.9927273       -22.00137
1.284                  0.9926274        -22.1054
1.288                  0.9925294       -22.20994
1.292                  0.9924334       -22.31501
1.296                  0.9923394       -22.42064
1.3                    0.9922473       -22.52682
1.304                  0.9921573       -22.63359
1.308                  0.9920691       -22.74096
1.312                  0.9919827       -22.84895
1.316                  0.9918983       -22.95757
1.32                   0.9918156       -23.06685
1.324                  0.9917345       -23.17679
1.328                  0.9916551       -23.28742
1.332                  0.9915771       -23.39875
1.336                  0.9915006       -23.51081
1.34                   0.9914253        -23.6236
1.344                  0.9913511       -23.73715
1.348                  0.9912779       -23.85148
1.352                  0.9912057       -23.96659
1.356                  0.9911341       -24.08251
1.36                   0.9910631       -24.19926
1.364                  0.9909923       -24.31685
1.368                  0.9909217       -24.43529
1.372                  0.9908511        -24.5546
1.376                  0.9907803        -24.6748
1.38                   0.9907091       -24.79591
1.384                  0.9906369       -24.91793
1.388                  0.9905639       -25.04088
1.392                  0.9904898       -25.16478
1.396                  0.9904141       -25.28964
1.4                    0.9903368       -25.41546
1.404                  0.9902575       -25.54227
1.408                   0.990176       -25.67008
1.412                  0.9900918       -25.79889
1.416                   0.990005       -25.92872
1.42                   0.9899149       -26.05958
1.424                  0.9898217       -26.19147
1.428                  0.9897246       -26.32441
1.432                  0.9896237       -26.45841
1.436                  0.9895184       -26.59347
1.44                   0.9894086        -26.7296
1.444                  0.9892939        -26.8668
1.448                  0.9891741       -27.00508
1.452                  0.9890487       -27.14446
1.456                  0.9889178       -27.28493
1.46                   0.9887806       -27.42649
1.464                   0.988637       -27.56915
1.468                  0.9884868       -27.71292
1.472                  0.9883297        -27.8578
1.476                  0.9881653       -28.00378
1.48                   0.9879935       -28.15087
1.484                  0.9878138       -28.29907
1.488                  0.9876261       -28.44838
1.492                  0.9874301        -28.5988
1.496                  0.9872254       -28.75033
1.5                    0.9870119       -28.90298
1.504                  0.9867894       -29.05672
1.508                  0.9865576       -29.21157
1.512                  0.9863164       -29.36753
1.516                  0.9860653       -29.52459
1.52                   0.9858044       -29.68274
1.524                  0.9855334       -29.84199
1.528                   0.985252       -30.00233
1.532                  0.9849601       -30.16376
1.536                  0.9846577       -30.32627
1.54                   0.9843446       -30.48986
1.544                  0.9840206       -30.65452
1.548                  0.9836855       -30.82027
1.552                  0.9833394       -30.98708
1.556                   0.982982       -31.15495
1.56                   0.9826133       -31.32389
1.564                  0.9822334       -31.49388
1.568                   0.981842       -31.66493
1.572                  0.9814393       -31.83703
1.576                  0.9810249       -32.01018
1.58                   0.9805993       -32.18437
1.584                   0.980162       -32.35961
1.588                  0.9797135       -32.53589
1.592                  0.9792532       -32.71322
1.596                  0.9787819       -32.89159
1.6                    0.9782991       -33.07099
1.604                  0.9778049       -33.25146
1.608                  0.9772997       -33.43295
1.612                  0.9767834        -33.6155
1.616                  0.9762559        -33.7991
1.62                   0.9757176       -33.98376
1.624                  0.9751684       -34.16947
1.628                  0.9746088       -34.35625
1.632                  0.9740384        -34.5441
1.636                  0.9734577       -34.73303
1.64                   0.9728668       -34.92306
1.644                  0.9722659       -35.11418
1.648                  0.9716549       -35.30642
1.652                  0.9710341       -35.49978
1.656                  0.9704037       -35.69429
1.66                    0.969764       -35.88994
1.664                  0.9691151       -36.08677
1.668                   0.968457       -36.28479
1.672                  0.9677899       -36.48401
1.676                  0.9671142       -36.68447
1.68                   0.9664299       -36.88619
1.684                   0.965737       -37.08918
1.688                   0.965036       -37.29347
1.692                  0.9643269       -37.49908
1.696                  0.9636098       -37.70607
1.7                    0.9628848       -37.91443
1.704                  0.9621524       -38.12421
1.708                  0.9614122       -38.33545
1.712                  0.9606645       -38.54817
1.716                  0.9599096       -38.76242
1.72                   0.9591473       -38.97823
1.724                  0.9583778       -39.19565
1.728                  0.9576011       -39.41471
1.732                  0.9568173       -39.63544
1.736                  0.9560264       -39.85791
1.74                   0.9552283       -40.08216
1.744                  0.9544229       -40.30823
1.748                  0.9536104       -40.53616
1.752                  0.9527906       -40.76602
1.756                  0.9519633       -40.99785
1.76                   0.9511285        -41.2317
1.764                   0.950286       -41.46765
1.768                  0.9494357       -41.70572
1.772                  0.9485773       -41.94598
1.776                  0.9477105       -42.18849
1.78                   0.9468351       -42.43331
1.784                   0.945951        -42.6805
1.788                  0.9450574       -42.93012
1.792                  0.9441544       -43.18223
1.796                  0.9432413       -43.43689
1.8                     0.942318       -43.69417
1.804                  0.9413838       -43.95414
1.808                  0.9404382       -44.21685
1.812                  0.9394806       -44.48238
1.816                  0.9385107       -44.75078
1.82                   0.9375276       -45.02214
1.824                  0.9365309       -45.29651
1.828                  0.9355196       -45.57398
1.832                  0.9344935       -45.85458
1.836                  0.9334514       -46.13841
1.84                   0.9323927       -46.42553
1.844                  0.9313165       -46.71601
1.848                  0.9302222       -47.00991
1.852                  0.9291085       -47.30732
1.856                  0.9279749       -47.60828
1.86                   0.9268202       -47.91288
1.864                  0.9256435       -48.22117
1.868                  0.9244438       -48.53324
1.872                    0.92322       -48.84915
1.876                  0.9219709       -49.16897
1.88                   0.9206955       -49.49276
1.884                  0.9193928       -49.82058
1.888                  0.9180615       -50.15252
1.892                  0.9167003       -50.48862
1.896                  0.9153082       -50.82896
1.9                    0.9138837        -51.1736
1.904                  0.9124258        -51.5226
1.908                   0.910933       -51.87603
1.912                  0.9094042       -52.23393
1.916                  0.9078377        -52.5964
1.92                   0.9062324       -52.96348
1.924                  0.9045871       -53.33521
1.928                  0.9028999       -53.71168
1.932                  0.9011699       -54.09293
1.936                  0.8993955       -54.47902
1.94                   0.8975752       -54.87001
1.944                  0.8957077       -55.26595
1.948                  0.8937914        -55.6669
1.952                  0.8918251       -56.07291
1.956                  0.8898071       -56.48403
1.96                   0.8877361        -56.9003
1.964                  0.8856108        -57.3218
1.968                  0.8834293       -57.74856
1.972                  0.8811905       -58.18064
1.976                  0.8788929       -58.61807
1.98                   0.8765351       -59.06092
1.984                  0.8741156       -59.50922
1.988                   0.871633       -59.96303
1.992                   0.869086       -60.42238
1.996                   0.866473       -60.88733
2                      0.8637928       -61.35792
2.004                   0.861044        -61.8342
2.008                  0.8582254        -62.3162
2.012                  0.8553355       -62.80398
2.016                  0.8523731       -63.29758
2.02                   0.8493369       -63.79704
2.024                  0.8462258       -64.30241
2.028                  0.8430385       -64.81372
2.032                  0.8397738       -65.33104
2.036                  0.8364305        -65.8544
2.04                   0.8330078       -66.38383
2.044                  0.8295042        -66.9194
2.048                   0.825919       -67.46116
2.052                  0.8222512       -68.00913
2.056                  0.8184998       -68.56339
2.06                   0.8146638       -69.12396
2.064                  0.8107423       -69.69092
2.068                  0.8067347        -70.2643
2.072                  0.8026401       -70.84416
2.076                  0.7984577       -71.43056
2.08                   0.7941871       -72.02356
2.084                  0.7898274       -72.62323
2.088                  0.7853782       -73.22958
2.092                   0.780839       -73.84274
2.096                  0.7762093       -74.46273
2.1                    0.7714885       -75.08966
2.104                  0.7666767       -75.72356
2.108                  0.7617734       -76.36456
2.112                  0.7567784       -77.01269
2.116                  0.7516915       -77.66804
2.12                   0.7465127       -78.33072
2.124                   0.741242       -79.00083
2.128                  0.7358793       -79.67845
2.132                  0.7304248       -80.36369
2.136                  0.7248788       -81.05665
2.14                   0.7192414       -81.75746
2.144                   0.713513       -82.46621
2.148                   0.707694       -83.18307
2.152                  0.7017848       -83.90815
2.156                  0.6957861        -84.6416
2.16                   0.6896984       -85.38358
2.164                  0.6835226       -86.13421
2.168                  0.6772593       -86.89372
2.172                  0.6709093       -87.66224
2.176                  0.6644738       -88.43998
2.18                   0.6579537       -89.22714
2.184                  0.6513502       -90.02392
2.188                  0.6446643       -90.83057
2.192                  0.6378975        -91.6473
2.196                  0.6310513       -92.47439
2.2                    0.6241269       -93.31209
2.204                  0.6171261        -94.1607
2.208                  0.6100503       -95.02051
2.212                  0.6029016       -95.89185
2.216                  0.5956818       -96.77505
2.22                   0.5883928       -97.67047
2.224                  0.5810367       -98.57852
2.228                  0.5736157       -99.49958
2.232                  0.5661322       -100.4341
2.236                  0.5585886       -101.3826
2.24                   0.5509873       -102.3454
2.244                  0.5433313       -103.3232
2.248                  0.5356233       -104.3165
2.252                  0.5278661       -105.3258
2.256                  0.5200629       -106.3519
2.26                    0.512217       -107.3954
2.264                  0.5043317       -108.4569
2.268                  0.4964107       -109.5373
2.272                  0.4884577       -110.6374
2.276                  0.4804765       -111.7579
2.28                   0.4724713       -112.8999
2.284                  0.4644465       -114.0643
2.288                  0.4564065       -115.2521
2.292                  0.4483561       -116.4645
2.296                  0.4403002       -117.7026
2.3                    0.4322441       -118.9676
2.304                  0.4241934        -120.261
2.308                  0.4161538        -121.584
2.312                  0.4081313       -122.9382
2.316                  0.4001327       -124.3252
2.32                   0.3921643       -125.7466
2.324                  0.3842337       -127.2043
2.328                  0.3763481          -128.7
2.332                  0.3685156       -130.2358
2.336                  0.3607447       -131.8137
2.34                   0.3530443       -133.4359
2.344                  0.3454238       -135.1047
2.348                  0.3378931       -136.8223
2.352                  0.3304629       -138.5913