! TOUCHSTONE file generated by CST MICROWAVE STUDIO
! Date and time: Thu May 12 17:57:29 2022
! Project name: AppElm_antenne_dipole_FR4.cst
! Parameters = {L=38.8; e=0.035; f=2.45e+09; h=1.6; i=0.8; l1=4; lambda=122.449; ls=30; wl=1.7; ws=60}
! Header version: 2018
! Port assignment regex: !\s*Touchstone port\s*([0-9]+)\s*=\s*(CST MWS port|CST DS port)\s*([0-9]+|Zmin|Zmax)\s*\(\"(.*)\"\)(\s*mode\s*([0-9]+))?.*
! Touchstone port assignment:
! Touchstone port 1 = CST MWS port 1 ("")
# GHz S MA R 50
0                      0.9979114              -0
0.004                   0.997913     -0.05097013
0.008                  0.9979179      -0.1019513
0.012                  0.9979259      -0.1529543
0.016                  0.9979372      -0.2039902
0.02                   0.9979516      -0.2550697
0.024                  0.9979691      -0.3062035
0.028                  0.9979898      -0.3574021
0.032                  0.9980134      -0.4086758
0.036                  0.9980399      -0.4600346
0.04                   0.9980693      -0.5114886
0.044                  0.9981014      -0.5630472
0.048                  0.9981363      -0.6147197
0.052                  0.9981736      -0.6665151
0.056                  0.9982133      -0.7184419
0.06                   0.9982554      -0.7705084
0.064                  0.9982996      -0.8227222
0.068                  0.9983458      -0.8750909
0.072                   0.998394      -0.9276212
0.076                   0.998444      -0.9803199
0.08                   0.9984956       -1.033192
0.084                  0.9985485       -1.086245
0.088                  0.9986028       -1.139482
0.092                  0.9986581       -1.192908
0.096                  0.9987142       -1.246527
0.1                    0.9987713       -1.300342
0.104                  0.9988288       -1.354356
0.108                  0.9988869       -1.408572
0.112                  0.9989452        -1.46299
0.116                  0.9990034       -1.517612
0.12                   0.9990615       -1.572439
0.124                  0.9991193        -1.62747
0.128                  0.9991765       -1.682705
0.132                  0.9992332       -1.738143
0.136                   0.999289       -1.793781
0.14                   0.9993436       -1.849618
0.144                  0.9993972        -1.90565
0.148                  0.9994492       -1.961875
0.152                     0.9995       -2.018288
0.156                  0.9995489       -2.074885
0.16                   0.9995959       -2.131661
0.164                   0.999641        -2.18861
0.168                  0.9996841       -2.245726
0.172                  0.9997248       -2.303005
0.176                   0.999763       -2.360438
0.18                   0.9997988       -2.418019
0.184                  0.9998319        -2.47574
0.188                  0.9998624       -2.533593
0.192                    0.99989        -2.59157
0.196                  0.9999147       -2.649663
0.2                    0.9999364       -2.707863
0.204                  0.9999549       -2.766161
0.208                  0.9999705       -2.824548
0.212                  0.9999827       -2.883015
0.216                  0.9999917       -2.941551
0.22                   0.9999975       -3.000149
0.224                          1       -3.058797
0.228                  0.9999992       -3.117486
0.232                  0.9999951       -3.176206
0.236                  0.9999877       -3.234948
0.24                   0.9999771       -3.293702
0.244                  0.9999632       -3.352457
0.248                  0.9999462       -3.411206
0.252                  0.9999257       -3.469938
0.256                  0.9999024       -3.528643
0.26                    0.999876       -3.587313
0.264                  0.9998467       -3.645939
0.268                  0.9998144       -3.704512
0.272                  0.9997794       -3.763024
0.276                  0.9997418       -3.821468
0.28                   0.9997015       -3.879835
0.284                  0.9996588       -3.938116
0.288                  0.9996138       -3.996308
0.292                  0.9995666       -4.054402
0.296                  0.9995173       -4.112393
0.3                    0.9994662       -4.170273
0.304                  0.9994133       -4.228041
0.308                  0.9993587       -4.285689
0.312                   0.999303       -4.343212
0.316                  0.9992458        -4.40061
0.32                   0.9991877       -4.457877
0.324                  0.9991284       -4.515012
0.328                  0.9990688       -4.572012
0.332                  0.9990083       -4.628877
0.336                  0.9989476       -4.685605
0.34                   0.9988868       -4.742196
0.344                  0.9988258        -4.79865
0.348                  0.9987652       -4.854969
0.352                  0.9987049       -4.911153
0.356                  0.9986452       -4.967206
0.36                   0.9985863       -5.023129
0.364                  0.9985282       -5.078928
0.368                  0.9984714       -5.134604
0.372                  0.9984158       -5.190162
0.376                  0.9983616       -5.245609
0.38                   0.9983091       -5.300949
0.384                  0.9982585       -5.356188
0.388                  0.9982098       -5.411333
0.392                   0.998163       -5.466392
0.396                  0.9981187       -5.521372
0.4                    0.9980767       -5.576281
0.404                  0.9980372       -5.631128
0.408                  0.9980004       -5.685922
0.412                  0.9979663       -5.740671
0.416                  0.9979351       -5.795388
0.42                   0.9979069       -5.850079
0.424                  0.9978816       -5.904758
0.428                  0.9978596       -5.959434
0.432                  0.9978408       -6.014119
0.436                  0.9978252       -6.068823
0.44                    0.997813       -6.123559
0.444                  0.9978041       -6.178336
0.448                  0.9977987       -6.233169
0.452                  0.9977965       -6.288068
0.456                  0.9977979       -6.343044
0.46                   0.9978027       -6.398111
0.464                  0.9978108        -6.45328
0.468                  0.9978222       -6.508565
0.472                  0.9978372       -6.563972
0.476                  0.9978555       -6.619519
0.48                   0.9978768       -6.675215
0.484                  0.9979015       -6.731071
0.488                  0.9979293       -6.787099
0.492                    0.99796        -6.84331
0.496                  0.9979936       -6.899714
0.5                      0.99803       -6.956321
0.504                  0.9980693       -7.013143
0.508                  0.9981111       -7.070188
0.512                  0.9981553       -7.127467
0.516                  0.9982019       -7.184987
0.52                   0.9982505       -7.242758
0.524                  0.9983013       -7.300786
0.528                  0.9983539        -7.35908
0.532                  0.9984081       -7.417649
0.536                  0.9984638       -7.476496
0.54                   0.9985209       -7.535627
0.544                  0.9985792        -7.59505
0.548                  0.9986384       -7.654768
0.552                  0.9986984       -7.714785
0.556                  0.9987589       -7.775108
0.56                   0.9988198       -7.835735
0.564                  0.9988809       -7.896672
0.568                   0.998942       -7.957918
0.572                  0.9990028       -8.019476
0.576                  0.9990632       -8.081347
0.58                    0.999123       -8.143529
0.584                   0.999182       -8.206023
0.588                  0.9992398       -8.268827
0.592                  0.9992966       -8.331938
0.596                  0.9993518       -8.395355
0.6                    0.9994055       -8.459074
0.604                  0.9994575       -8.523092
0.608                  0.9995074       -8.587403
0.612                  0.9995551       -8.652005
0.616                  0.9996005       -8.716889
0.62                   0.9996435       -8.782051
0.624                  0.9996838       -8.847485
0.628                  0.9997213       -8.913181
0.632                  0.9997559       -8.979137
0.636                  0.9997875        -9.04534
0.64                   0.9998158       -9.111784
0.644                  0.9998408       -9.178462
0.648                  0.9998625        -9.24536
0.652                  0.9998806       -9.312475
0.656                  0.9998951       -9.379793
0.66                    0.999906       -9.447305
0.664                   0.999913       -9.515002
0.668                  0.9999164       -9.582872
0.672                  0.9999159       -9.650906
0.676                  0.9999115       -9.719094
0.68                   0.9999032       -9.787423
0.684                  0.9998909       -9.855883
0.688                  0.9998748       -9.924466
0.692                  0.9998549       -9.993158
0.696                  0.9998309       -10.06195
0.7                    0.9998032       -10.13083
0.704                  0.9997717       -10.19979
0.708                  0.9997365       -10.26881
0.712                  0.9996976        -10.3379
0.716                   0.999655       -10.40703
0.72                   0.9996091        -10.4762
0.724                  0.9995598        -10.5454
0.728                  0.9995072       -10.61462
0.732                  0.9994515       -10.68385
0.736                  0.9993926       -10.75309
0.74                   0.9993309       -10.82232
0.744                  0.9992667       -10.89154
0.748                  0.9991996       -10.96074
0.752                  0.9991304       -11.02991
0.756                  0.9990586       -11.09906
0.76                    0.998985       -11.16816
0.764                  0.9989094       -11.23723
0.768                  0.9988323       -11.30625
0.772                  0.9987535       -11.37523
0.776                  0.9986736       -11.44415
0.78                   0.9985927       -11.51302
0.784                  0.9985108       -11.58183
0.788                  0.9984283       -11.65059
0.792                  0.9983453        -11.7193
0.796                  0.9982623       -11.78794
0.8                    0.9981791       -11.85654
0.804                  0.9980962       -11.92508
0.808                  0.9980137       -11.99358
0.812                  0.9979319       -12.06203
0.816                  0.9978511       -12.13044
0.82                   0.9977712       -12.19881
0.824                  0.9976927       -12.26716
0.828                  0.9976157       -12.33548
0.832                  0.9975404       -12.40378
0.836                   0.997467       -12.47207
0.84                   0.9973957       -12.54036
0.844                  0.9973267       -12.60867
0.848                  0.9972602       -12.67698
0.852                  0.9971962       -12.74533
0.856                   0.997135       -12.81371
0.86                   0.9970767       -12.88215
0.864                  0.9970217       -12.95065
0.868                  0.9969697       -13.01922
0.872                  0.9969211       -13.08788
0.876                  0.9968759       -13.15664
0.88                   0.9968344       -13.22551
0.884                  0.9967963       -13.29452
0.888                  0.9967621       -13.36366
0.892                  0.9967316       -13.43297
0.896                   0.996705       -13.50244
0.9                    0.9966823        -13.5721
0.904                  0.9966634       -13.64197
0.908                  0.9966485       -13.71205
0.912                  0.9966375       -13.78237
0.916                  0.9966304       -13.85294
0.92                   0.9966273       -13.92377
0.924                  0.9966278       -13.99489
0.928                  0.9966323        -14.0663
0.932                  0.9966406       -14.13802
0.936                  0.9966524       -14.21007
0.94                   0.9966679       -14.28246
0.944                  0.9966868        -14.3552
0.948                   0.996709       -14.42832
0.952                  0.9967345       -14.50183
0.956                  0.9967631       -14.57574
0.96                   0.9967946       -14.65006
0.964                  0.9968288        -14.7248
0.968                  0.9968658       -14.79998
0.972                  0.9969051       -14.87562
0.976                  0.9969466       -14.95172
0.98                   0.9969901       -15.02829
0.984                  0.9970354       -15.10535
0.988                  0.9970825        -15.1829
0.992                  0.9971308       -15.26095
0.996                  0.9971803       -15.33951
1                      0.9972306        -15.4186
1.004                  0.9972816       -15.49821
1.008                  0.9973331       -15.57835
1.012                  0.9973846       -15.65904
1.016                  0.9974361       -15.74026
1.02                    0.997487       -15.82204
1.024                  0.9975376       -15.90436
1.028                  0.9975872       -15.98725
1.032                  0.9976356       -16.07069
1.036                  0.9976825       -16.15467
1.04                   0.9977278        -16.2392
1.044                  0.9977711        -16.3243
1.048                  0.9978123       -16.40998
1.052                  0.9978509       -16.49618
1.056                  0.9978869       -16.58295
1.06                   0.9979198       -16.67024
1.064                  0.9979497       -16.75808
1.068                   0.997976       -16.84646
1.072                  0.9979987       -16.93539
1.076                  0.9980176       -17.02484
1.08                   0.9980324       -17.11478
1.084                  0.9980428       -17.20526
1.088                  0.9980488       -17.29624
1.092                  0.9980501       -17.38768
1.096                  0.9980466       -17.47965
1.1                    0.9980382       -17.57207
1.104                  0.9980246       -17.66499
1.108                  0.9980056       -17.75829
1.112                  0.9979814       -17.85208
1.116                  0.9979516       -17.94631
1.12                   0.9979163       -18.04095
1.124                  0.9978752         -18.136
1.128                  0.9978284       -18.23144
1.132                  0.9977757       -18.32727
1.136                  0.9977173       -18.42347
1.14                    0.997653       -18.52003
1.144                   0.997583       -18.61694
1.148                   0.997507       -18.71418
1.152                  0.9974251       -18.81174
1.156                  0.9973376       -18.90961
1.16                   0.9972442       -19.00779
1.164                  0.9971451       -19.10625
1.168                  0.9970405       -19.20498
1.172                  0.9969304       -19.30398
1.176                   0.996815       -19.40323
1.18                   0.9966942       -19.50273
1.184                  0.9965683       -19.60245
1.188                  0.9964374       -19.70241
1.192                  0.9963017       -19.80257
1.196                  0.9961616       -19.90294
1.2                    0.9960168       -20.00351
1.204                  0.9958678       -20.10427
1.208                  0.9957148       -20.20522
1.212                  0.9955581       -20.30634
1.216                  0.9953976       -20.40764
1.22                   0.9952339       -20.50911
1.224                  0.9950673       -20.61075
1.228                  0.9948975       -20.71255
1.232                  0.9947254       -20.81452
1.236                   0.994551       -20.91665
1.24                   0.9943744       -21.01894
1.244                  0.9941962        -21.1214
1.248                  0.9940165       -21.22403
1.252                  0.9938356       -21.32683
1.256                  0.9936539       -21.42981
1.26                   0.9934714       -21.53297
1.264                  0.9932886       -21.63631
1.268                  0.9931058       -21.73985
1.272                  0.9929232        -21.8436
1.276                  0.9927411       -21.94756
1.28                   0.9925598       -22.05175
1.284                  0.9923795       -22.15617
1.288                  0.9922007       -22.26085
1.292                  0.9920233       -22.36579
1.296                  0.9918478         -22.471
1.3                    0.9916742       -22.57651
1.304                   0.991503       -22.68233
1.308                  0.9913342       -22.78848
1.312                  0.9911682       -22.89498
1.316                  0.9910051       -23.00185
1.32                   0.9908449        -23.1091
1.324                   0.990688       -23.21676
1.328                  0.9905346       -23.32485
1.332                  0.9903847        -23.4334
1.336                  0.9902384       -23.54242
1.34                   0.9900959       -23.65194
1.344                  0.9899572       -23.76198
1.348                  0.9898224       -23.87258
1.352                  0.9896916       -23.98375
1.356                  0.9895648       -24.09552
1.36                    0.989442       -24.20791
1.364                  0.9893232       -24.32096
1.368                  0.9892083        -24.4347
1.372                  0.9890974       -24.54914
1.376                  0.9889904       -24.66431
1.38                   0.9888872       -24.78025
1.384                  0.9887877       -24.89697
1.388                  0.9886917       -25.01451
1.392                  0.9885992        -25.1329
1.396                  0.9885099       -25.25215
1.4                    0.9884237       -25.37231
1.404                  0.9883402       -25.49339
1.408                  0.9882596       -25.61541
1.412                  0.9881813       -25.73841
1.416                  0.9881051       -25.86242
1.42                   0.9880309       -25.98744
1.424                  0.9879581       -26.11353
1.428                  0.9878868       -26.24068
1.432                  0.9878163       -26.36893
1.436                  0.9877465        -26.4983
1.44                   0.9876769       -26.62881
1.444                  0.9876072       -26.76048
1.448                   0.987537       -26.89333
1.452                  0.9874659       -27.02738
1.456                  0.9873934       -27.16265
1.46                   0.9873195       -27.29916
1.464                  0.9872431       -27.43692
1.468                  0.9871643       -27.57594
1.472                  0.9870825       -27.71625
1.476                  0.9869973       -27.85784
1.48                   0.9869081       -28.00075
1.484                  0.9868145       -28.14498
1.488                  0.9867161       -28.29052
1.492                  0.9866125       -28.43741
1.496                  0.9865031       -28.58564
1.5                    0.9863874       -28.73522
1.504                  0.9862651       -28.88616
1.508                  0.9861357       -29.03846
1.512                  0.9859986       -29.19213
1.516                  0.9858536       -29.34716
1.52                      0.9857       -29.50356
1.524                  0.9855376       -29.66134
1.528                  0.9853658       -29.82048
1.532                  0.9851842       -29.98099
1.536                  0.9849924       -30.14286
1.54                   0.9847902        -30.3061
1.544                  0.9845769        -30.4707
1.548                  0.9843523       -30.63665
1.552                  0.9841161       -30.80395
1.556                  0.9838678       -30.97259
1.56                    0.983607       -31.14257
1.564                  0.9833338       -31.31388
1.568                  0.9830475        -31.4865
1.572                  0.9827479       -31.66045
1.576                  0.9824349       -31.83569
1.58                   0.9821081       -32.01223
1.584                  0.9817673       -32.19005
1.588                  0.9814125       -32.36914
1.592                  0.9810433       -32.54951
1.596                  0.9806596       -32.73112
1.6                    0.9802612       -32.91399
1.604                  0.9798481        -33.0981
1.608                  0.9794201       -33.28343
1.612                  0.9789772       -33.46998
1.616                  0.9785195       -33.65773
1.62                   0.9780465        -33.8467
1.624                  0.9775588       -34.03684
1.628                  0.9770559       -34.22818
1.632                   0.976538       -34.42069
1.636                  0.9760053       -34.61437
1.64                   0.9754578       -34.80922
1.644                  0.9748954       -35.00524
1.648                  0.9743184       -35.20242
1.652                   0.973727       -35.40074
1.656                  0.9731211       -35.60022
1.66                   0.9725012       -35.80085
1.664                  0.9718671       -36.00265
1.668                  0.9712192       -36.20559
1.672                  0.9705579        -36.4097
1.676                  0.9698829       -36.61497
1.68                   0.9691948       -36.82143
1.684                  0.9684938       -37.02905
1.688                  0.9677802       -37.23787
1.692                  0.9670541        -37.4479
1.696                  0.9663159       -37.65913
1.7                    0.9655659       -37.87161
1.704                  0.9648041       -38.08533
1.708                  0.9640311       -38.30032
1.712                  0.9632471        -38.5166
1.716                  0.9624522       -38.73419
1.72                   0.9616469       -38.95312
1.724                  0.9608314       -39.17341
1.728                  0.9600058        -39.3951
1.732                  0.9591705       -39.61821
1.736                  0.9583259       -39.84279
1.74                    0.957472       -40.06887
1.744                   0.956609       -40.29647
1.748                  0.9557373       -40.52565
1.752                  0.9548571       -40.75644
1.756                  0.9539684       -40.98889
1.76                   0.9530715       -41.22305
1.764                  0.9521663       -41.45898
1.768                  0.9512532        -41.6967
1.772                  0.9503321       -41.93629
1.776                  0.9494031       -42.17779
1.78                   0.9484664       -42.42126
1.784                  0.9475217       -42.66677
1.788                  0.9465692       -42.91437
1.792                  0.9456087       -43.16412
1.796                  0.9446402       -43.41609
1.8                    0.9436635       -43.67035
1.804                  0.9426785       -43.92696
1.808                  0.9416849         -44.186
1.812                  0.9406826       -44.44753
1.816                  0.9396712       -44.71163
1.82                   0.9386503       -44.97837
1.824                  0.9376197       -45.24784
1.828                   0.936579       -45.52009
1.832                  0.9355275       -45.79522
1.836                  0.9344651       -46.07329
1.84                   0.9333908        -46.3544
1.844                  0.9323044       -46.63862
1.848                   0.931205       -46.92603
1.852                  0.9300919       -47.21672
1.856                  0.9289647       -47.51076
1.86                   0.9278224       -47.80823
1.864                  0.9266642       -48.10924
1.868                  0.9254892       -48.41385
1.872                  0.9242966       -48.72215
1.876                  0.9230854       -49.03422
1.88                   0.9218545       -49.35015
1.884                  0.9206032       -49.67002
1.888                    0.91933        -49.9939
1.892                  0.9180339        -50.3219
1.896                  0.9167138        -50.6541
1.9                    0.9153686       -50.99056
1.904                   0.913997       -51.33137
1.908                  0.9125975       -51.67662
1.912                  0.9111691       -52.02638
1.916                  0.9097102       -52.38074
1.92                   0.9082195       -52.73976
1.924                  0.9066958       -53.10354
1.928                  0.9051373       -53.47214
1.932                  0.9035428       -53.84564
1.936                  0.9019105       -54.22413
1.94                   0.9002392       -54.60765
1.944                  0.8985273       -54.99631
1.948                  0.8967731       -55.39016
1.952                  0.8949751       -55.78926
1.956                  0.8931316       -56.19371
1.96                   0.8912413       -56.60355
1.964                  0.8893021       -57.01886
1.968                  0.8873127        -57.4397
1.972                  0.8852714       -57.86614
1.976                  0.8831765       -58.29824
1.98                   0.8810265       -58.73605
1.984                  0.8788194       -59.17966
1.988                   0.876554        -59.6291
1.992                  0.8742284       -60.08444
1.996                   0.871841       -60.54575
2                      0.8693903       -61.01306
2.004                  0.8668744       -61.48646
2.008                   0.864292       -61.96597
2.012                  0.8616416       -62.45165
2.016                  0.8589213       -62.94359
2.02                   0.8561297       -63.44181
2.024                  0.8532653       -63.94637
2.028                  0.8503268       -64.45732
2.032                  0.8473126        -64.9747
2.036                  0.8442211        -65.4986
2.04                   0.8410512       -66.02903
2.044                  0.8378014       -66.56606
2.048                  0.8344704       -67.10976
2.052                  0.8310569       -67.66014
2.056                  0.8275598       -68.21729
2.06                   0.8239777       -68.78124
2.064                  0.8203097       -69.35207
2.068                  0.8165546       -69.92981
2.072                  0.8127112       -70.51453
2.076                  0.8087789       -71.10628
2.08                   0.8047564       -71.70511
2.084                  0.8006431       -72.31111
2.088                   0.796438       -72.92433
2.092                  0.7921404       -73.54482
2.096                  0.7877496       -74.17267
2.1                    0.7832652       -74.80792
2.104                  0.7786863       -75.45068
2.108                  0.7740126       -76.10098
2.112                  0.7692437       -76.75893
2.116                   0.764379       -77.42462
2.12                   0.7594186       -78.09811
2.124                  0.7543621       -78.77952
2.128                  0.7492094        -79.4689
2.132                  0.7439605        -80.1664
2.136                  0.7386153        -80.8721
2.14                   0.7331741       -81.58611
2.144                   0.727637       -82.30856
2.148                  0.7220043       -83.03956
2.152                  0.7162763       -83.77925
2.156                  0.7104536       -84.52775
2.16                   0.7045366       -85.28522
2.164                   0.698526       -86.05181
2.168                  0.6924226        -86.8277
2.172                  0.6862269       -87.61303
2.176                  0.6799402       -88.40801
2.18                   0.6735633       -89.21283
2.184                  0.6670973       -90.02767
2.188                  0.6605437       -90.85277
2.192                  0.6539033       -91.68836
2.196                  0.6471779       -92.53467
2.2                    0.6403688       -93.39197
2.204                  0.6334776       -94.26054
2.208                  0.6265063       -95.14065
2.212                  0.6194566       -96.03263
2.216                  0.6123302        -96.9368
2.22                   0.6051296       -97.85351
2.224                  0.5978566       -98.78312
2.228                  0.5905138       -99.72604
2.232                  0.5831035       -100.6827
2.236                  0.5756283       -101.6535
2.24                   0.5680909       -102.6389
2.244                  0.5604942       -103.6394
2.248                  0.5528411       -104.6557
2.252                  0.5451348       -105.6881
2.256                  0.5373784       -106.7373
2.26                   0.5295755        -107.804
2.264                  0.5217297       -108.8889
2.268                  0.5138448       -109.9926
2.272                  0.5059247       -111.1159
2.276                  0.4979735       -112.2596
2.28                   0.4899957       -113.4246
2.284                  0.4819957       -114.6118
2.288                  0.4739783       -115.8221
2.292                  0.4659486       -117.0567
2.296                  0.4579116       -118.3165
2.3                     0.449873       -119.6027
2.304                  0.4418385       -120.9166
2.308                  0.4338141       -122.2594
2.312                  0.4258062       -123.6326
2.316                  0.4178214       -125.0374
2.32                   0.4098668       -126.4756
2.324                  0.4019496       -127.9486
2.328                  0.3940777       -129.4581
2.332                  0.3862592        -131.006
2.336                  0.3785026       -132.5939
2.34                    0.370817       -134.2239
2.344                  0.3632118       -135.8978
2.348                   0.355697       -137.6178
2.352                  0.3482832       -139.3859