! TOUCHSTONE file generated by CST MICROWAVE STUDIO
! Date and time: Thu May 12 17:57:32 2022
! Project name: AppElm_antenne_dipole_FR4.cst
! Parameters = {L=38.8; e=0.035; f=2.45e+09; h=1.6; i=0.8; l1=4; lambda=122.449; ls=30; wl=1.7; ws=76}
! Header version: 2018
! Port assignment regex: !\s*Touchstone port\s*([0-9]+)\s*=\s*(CST MWS port|CST DS port)\s*([0-9]+|Zmin|Zmax)\s*\(\"(.*)\"\)(\s*mode\s*([0-9]+))?.*
! Touchstone port assignment:
! Touchstone port 1 = CST MWS port 1 ("")
# GHz S MA R 50
0                      0.9999138              -0
0.004                  0.9999135     -0.05503078
0.008                  0.9999127       -0.110061
0.012                  0.9999114        -0.16509
0.016                  0.9999095      -0.2201173
0.02                   0.9999072      -0.2751422
0.024                  0.9999044      -0.3301644
0.028                  0.9999009       -0.385183
0.032                  0.9998971      -0.4401976
0.036                  0.9998927      -0.4952076
0.04                   0.9998879      -0.5502125
0.044                  0.9998826      -0.6052119
0.048                  0.9998768       -0.660205
0.052                  0.9998705      -0.7151916
0.056                  0.9998637       -0.770171
0.06                   0.9998565      -0.8251429
0.064                  0.9998488      -0.8801067
0.068                  0.9998407      -0.9350621
0.072                  0.9998323      -0.9900086
0.076                  0.9998234       -1.044946
0.08                   0.9998142       -1.099874
0.084                  0.9998045       -1.154791
0.088                  0.9997945       -1.209699
0.092                  0.9997843       -1.264596
0.096                  0.9997735       -1.319482
0.1                    0.9997626       -1.374358
0.104                  0.9997513       -1.429222
0.108                  0.9997398       -1.484075
0.112                  0.9997281       -1.538917
0.116                  0.9997159       -1.593747
0.12                   0.9997038       -1.648566
0.124                  0.9996913       -1.703374
0.128                  0.9996788        -1.75817
0.132                  0.9996661       -1.812955
0.136                  0.9996532       -1.867729
0.14                   0.9996402       -1.922492
0.144                  0.9996272       -1.977244
0.148                   0.999614       -2.031987
0.152                  0.9996009        -2.08672
0.156                  0.9995878       -2.141443
0.16                   0.9995747       -2.196157
0.164                  0.9995615       -2.250863
0.168                  0.9995486       -2.305562
0.172                  0.9995357       -2.360253
0.176                  0.9995228       -2.414937
0.18                   0.9995102       -2.469617
0.184                  0.9994976       -2.524292
0.188                  0.9994854       -2.578962
0.192                  0.9994732       -2.633631
0.196                  0.9994615       -2.688298
0.2                    0.9994499       -2.742964
0.204                  0.9994386       -2.797631
0.208                  0.9994277         -2.8523
0.212                  0.9994172       -2.906972
0.216                   0.999407       -2.961649
0.22                   0.9993971       -3.016333
0.224                  0.9993878       -3.071024
0.228                  0.9993789       -3.125724
0.232                  0.9993704       -3.180436
0.236                  0.9993624       -3.235161
0.24                    0.999355         -3.2899
0.244                   0.999348       -3.344656
0.248                  0.9993416       -3.399432
0.252                  0.9993358       -3.454227
0.256                  0.9993306       -3.509045
0.26                    0.999326       -3.563888
0.264                   0.999322       -3.618759
0.268                  0.9993186       -3.673659
0.272                   0.999316        -3.72859
0.276                   0.999314       -3.783556
0.28                   0.9993126       -3.838559
0.284                   0.999312         -3.8936
0.288                  0.9993119       -3.948684
0.292                  0.9993127       -4.003812
0.296                  0.9993141       -4.058986
0.3                    0.9993163        -4.11421
0.304                  0.9993192       -4.169486
0.308                  0.9993227       -4.224817
0.312                   0.999327       -4.280205
0.316                  0.9993322       -4.335654
0.32                   0.9993379       -4.391166
0.324                  0.9993443       -4.446743
0.328                  0.9993515       -4.502389
0.332                  0.9993594       -4.558108
0.336                  0.9993678       -4.613899
0.34                   0.9993771       -4.669768
0.344                  0.9993868       -4.725717
0.348                  0.9993974       -4.781748
0.352                  0.9994085       -4.837864
0.356                  0.9994202       -4.894068
0.36                   0.9994324       -4.950363
0.364                  0.9994455        -5.00675
0.368                  0.9994588       -5.063233
0.372                  0.9994726       -5.119815
0.376                   0.999487       -5.176497
0.38                   0.9995018       -5.233282
0.384                  0.9995172       -5.290172
0.388                  0.9995328       -5.347172
0.392                  0.9995488       -5.404279
0.396                  0.9995651       -5.461499
0.4                    0.9995817       -5.518833
0.404                  0.9995984       -5.576284
0.408                  0.9996155       -5.633852
0.412                  0.9996327        -5.69154
0.416                  0.9996501       -5.749348
0.42                   0.9996675        -5.80728
0.424                  0.9996849       -5.865336
0.428                  0.9997023       -5.923518
0.432                  0.9997197       -5.981826
0.436                   0.999737       -6.040262
0.44                   0.9997539       -6.098828
0.444                  0.9997709       -6.157522
0.448                  0.9997876       -6.216348
0.452                  0.9998041       -6.275304
0.456                  0.9998199       -6.334393
0.46                   0.9998357       -6.393613
0.464                  0.9998509       -6.452965
0.468                  0.9998657       -6.512449
0.472                  0.9998798       -6.572066
0.476                  0.9998935       -6.631815
0.48                   0.9999066       -6.691694
0.484                  0.9999187       -6.751706
0.488                  0.9999304       -6.811848
0.492                  0.9999413        -6.87212
0.496                  0.9999515        -6.93252
0.5                    0.9999606        -6.99305
0.504                   0.999969       -7.053706
0.508                  0.9999765       -7.114489
0.512                  0.9999829       -7.175396
0.516                  0.9999884       -7.236425
0.52                   0.9999929       -7.297579
0.524                  0.9999963        -7.35885
0.528                  0.9999987       -7.420241
0.532                  0.9999999       -7.481746
0.536                          1       -7.543369
0.54                   0.9999989       -7.605102
0.544                  0.9999966       -7.666947
0.548                  0.9999932         -7.7289
0.552                  0.9999885        -7.79096
0.556                  0.9999826       -7.853123
0.56                   0.9999755       -7.915389
0.564                   0.999967       -7.977754
0.568                  0.9999574       -8.040216
0.572                  0.9999466       -8.102773
0.576                  0.9999344       -8.165422
0.58                   0.9999211       -8.228161
0.584                  0.9999065       -8.290988
0.588                  0.9998906       -8.353901
0.592                  0.9998737       -8.416894
0.596                  0.9998554       -8.479969
0.6                     0.999836       -8.543124
0.604                  0.9998154       -8.606352
0.608                  0.9997937       -8.669655
0.612                  0.9997709       -8.733031
0.616                  0.9997471       -8.796476
0.62                   0.9997222       -8.859988
0.624                  0.9996963       -8.923567
0.628                  0.9996695        -8.98721
0.632                  0.9996417       -9.050915
0.636                  0.9996132       -9.114682
0.64                   0.9995836       -9.178507
0.644                  0.9995535       -9.242392
0.648                  0.9995226       -9.306333
0.652                  0.9994911        -9.37033
0.656                  0.9994589       -9.434383
0.66                   0.9994263       -9.498492
0.664                  0.9993931       -9.562656
0.668                  0.9993595       -9.626872
0.672                  0.9993256       -9.691145
0.676                  0.9992914       -9.755471
0.68                   0.9992569       -9.819851
0.684                  0.9992225       -9.884287
0.688                  0.9991878       -9.948779
0.692                   0.999153       -10.01333
0.696                  0.9991185       -10.07794
0.7                     0.999084        -10.1426
0.704                  0.9990498       -10.20733
0.708                  0.9990158       -10.27213
0.712                  0.9989822       -10.33698
0.716                  0.9989491       -10.40191
0.72                   0.9989164       -10.46691
0.724                  0.9988842       -10.53198
0.728                  0.9988527       -10.59712
0.732                   0.998822       -10.66235
0.736                  0.9987919       -10.72766
0.74                   0.9987627       -10.79305
0.744                  0.9987345       -10.85854
0.748                  0.9987071       -10.92412
0.752                  0.9986809        -10.9898
0.756                  0.9986555       -11.05559
0.76                   0.9986315       -11.12148
0.764                  0.9986085       -11.18749
0.768                  0.9985868       -11.25362
0.772                  0.9985664       -11.31987
0.776                  0.9985472       -11.38626
0.78                   0.9985294       -11.45278
0.784                  0.9985129       -11.51944
0.788                  0.9984979       -11.58624
0.792                  0.9984843       -11.65321
0.796                  0.9984722       -11.72033
0.8                    0.9984615       -11.78762
0.804                  0.9984523       -11.85508
0.808                  0.9984447       -11.92273
0.812                  0.9984386       -11.99056
0.816                  0.9984339       -12.05858
0.82                   0.9984307       -12.12681
0.824                  0.9984291       -12.19524
0.828                  0.9984289       -12.26388
0.832                  0.9984303       -12.33275
0.836                  0.9984328       -12.40184
0.84                    0.998437       -12.47117
0.844                  0.9984425       -12.54074
0.848                  0.9984494       -12.61055
0.852                  0.9984574       -12.68063
0.856                  0.9984668       -12.75096
0.86                   0.9984774       -12.82156
0.864                   0.998489       -12.89244
0.868                  0.9985019        -12.9636
0.872                  0.9985157       -13.03505
0.876                  0.9985303       -13.10679
0.88                   0.9985459       -13.17882
0.884                  0.9985622       -13.25117
0.888                  0.9985792       -13.32382
0.892                  0.9985968       -13.39679
0.896                  0.9986148       -13.47008
0.9                    0.9986335        -13.5437
0.904                  0.9986524       -13.61765
0.908                  0.9986715       -13.69193
0.912                  0.9986907       -13.76656
0.916                  0.9987099       -13.84152
0.92                   0.9987291       -13.91684
0.924                   0.998748        -13.9925
0.928                  0.9987667       -14.06852
0.932                  0.9987849        -14.1449
0.936                  0.9988025       -14.22163
0.94                   0.9988195       -14.29872
0.944                  0.9988357       -14.37618
0.948                   0.998851       -14.45401
0.952                  0.9988653        -14.5322
0.956                  0.9988785       -14.61075
0.96                   0.9988904       -14.68968
0.964                   0.998901       -14.76897
0.968                    0.99891       -14.84863
0.972                  0.9989174       -14.92866
0.976                  0.9989231       -15.00906
0.98                   0.9989271       -15.08982
0.984                  0.9989291       -15.17095
0.988                   0.998929       -15.25245
0.992                  0.9989268        -15.3343
0.996                  0.9989224       -15.41652
1                      0.9989156       -15.49909
1.004                  0.9989064       -15.58202
1.008                  0.9988947        -15.6653
1.012                  0.9988804       -15.74893
1.016                  0.9988633       -15.83291
1.02                   0.9988435       -15.91723
1.024                  0.9988209       -16.00188
1.028                  0.9987953       -16.08689
1.032                  0.9987669       -16.17221
1.036                  0.9987354       -16.25783
1.04                   0.9987009       -16.34381
1.044                  0.9986632       -16.43012
1.048                  0.9986223       -16.51673
1.052                  0.9985783       -16.60363
1.056                  0.9985312       -16.69087
1.06                   0.9984808       -16.77835
1.064                  0.9984272       -16.86619
1.068                  0.9983704       -16.95427
1.072                  0.9983103       -17.04268
1.076                   0.998247       -17.13131
1.08                   0.9981805       -17.22024
1.084                  0.9981109       -17.30944
1.088                  0.9980382       -17.39894
1.092                  0.9979623       -17.48866
1.096                  0.9978833       -17.57866
1.1                    0.9978015        -17.6689
1.104                  0.9977166       -17.75938
1.108                  0.9976289       -17.85009
1.112                  0.9975383       -17.94107
1.116                   0.997445       -18.03229
1.12                   0.9973491       -18.12373
1.124                  0.9972507       -18.21539
1.128                  0.9971498       -18.30731
1.132                  0.9970465       -18.39944
1.136                   0.996941        -18.4918
1.14                   0.9968334       -18.58439
1.144                  0.9967238       -18.67719
1.148                  0.9966122       -18.77022
1.152                  0.9964989       -18.86347
1.156                  0.9963839       -18.95694
1.16                   0.9962675       -19.05063
1.164                  0.9961497       -19.14455
1.168                  0.9960307        -19.2387
1.172                  0.9959105       -19.33307
1.176                  0.9957894       -19.42767
1.18                   0.9956676       -19.52251
1.184                  0.9955451       -19.61758
1.188                  0.9954221        -19.7129
1.192                  0.9952988       -19.80846
1.196                  0.9951752       -19.90428
1.2                    0.9950517       -20.00035
1.204                  0.9949282       -20.09669
1.208                  0.9948049        -20.1933
1.212                  0.9946821       -20.29019
1.216                  0.9945597       -20.38736
1.22                    0.994438       -20.48483
1.224                  0.9943171       -20.58261
1.228                   0.994197        -20.6807
1.232                  0.9940781       -20.77911
1.236                  0.9939605       -20.87786
1.24                   0.9938439       -20.97696
1.244                  0.9937289       -21.07642
1.248                  0.9936153       -21.17625
1.252                  0.9935034       -21.27646
1.256                   0.993393       -21.37707
1.26                   0.9932845       -21.47809
1.264                  0.9931778       -21.57954
1.268                  0.9930731       -21.68143
1.272                  0.9929703       -21.78377
1.276                  0.9928695       -21.88658
1.28                   0.9927708       -21.98988
1.284                  0.9926741       -22.09369
1.288                  0.9925796       -22.19801
1.292                  0.9924873       -22.30287
1.296                   0.992397       -22.40827
1.3                    0.9923088       -22.51425
1.304                  0.9922229       -22.62082
1.308                  0.9921388       -22.72799
1.312                  0.9920567       -22.83578
1.316                  0.9919767       -22.94421
1.32                   0.9918985        -23.0533
1.324                  0.9918223       -23.16307
1.328                  0.9917477       -23.27352
1.332                  0.9916747       -23.38469
1.336                  0.9916031       -23.49659
1.34                   0.9915332       -23.60923
1.344                  0.9914644       -23.72264
1.348                  0.9913965       -23.83683
1.352                  0.9913298       -23.95181
1.356                   0.991264       -24.06762
1.36                   0.9911987       -24.18425
1.364                  0.9911337       -24.30173
1.368                   0.991069       -24.42008
1.372                  0.9910043       -24.53931
1.376                  0.9909394       -24.65944
1.38                   0.9908741       -24.78048
1.384                  0.9908081       -24.90244
1.388                  0.9907412       -25.02534
1.392                  0.9906732        -25.1492
1.396                  0.9906036       -25.27403
1.4                    0.9905325       -25.39984
1.404                  0.9904594       -25.52664
1.408                  0.9903841       -25.65444
1.412                  0.9903061       -25.78326
1.416                  0.9902254       -25.91311
1.42                   0.9901415         -26.044
1.424                  0.9900543       -26.17593
1.428                  0.9899633       -26.30891
1.432                  0.9898684       -26.44296
1.436                   0.989769       -26.57808
1.44                    0.989665       -26.71428
1.444                  0.9895563       -26.85156
1.448                  0.9894421       -26.98994
1.452                  0.9893223       -27.12941
1.456                  0.9891968       -27.26997
1.46                    0.989065       -27.41165
1.464                  0.9889269       -27.55442
1.468                   0.988782       -27.69831
1.472                    0.98863       -27.84331
1.476                  0.9884705       -27.98942
1.48                   0.9883036       -28.13665
1.484                  0.9881286       -28.28499
1.488                  0.9879455       -28.43444
1.492                  0.9877539       -28.58501
1.496                  0.9875537       -28.73669
1.5                    0.9873443       -28.88948
1.504                  0.9871258       -29.04339
1.508                  0.9868979       -29.19839
1.512                  0.9866603       -29.35451
1.516                  0.9864129       -29.51171
1.52                   0.9861554       -29.67003
1.524                  0.9858876       -29.82943
1.528                  0.9856094       -29.98992
1.532                  0.9853206        -30.1515
1.536                  0.9850211       -30.31415
1.54                   0.9847106       -30.47789
1.544                  0.9843889       -30.64269
1.548                  0.9840563       -30.80857
1.552                  0.9837124       -30.97551
1.556                  0.9833572       -31.14351
1.56                   0.9829906       -31.31255
1.564                  0.9826125       -31.48266
1.568                  0.9822228       -31.65381
1.572                  0.9818217         -31.826
1.576                   0.981409       -31.99923
1.58                   0.9809847        -32.1735
1.584                  0.9805488       -32.34881
1.588                  0.9801014       -32.52515
1.592                  0.9796426       -32.70252
1.596                  0.9791723       -32.88092
1.6                    0.9786906       -33.06035
1.604                  0.9781976        -33.2408
1.608                  0.9776934        -33.4223
1.612                   0.977178       -33.60482
1.616                  0.9766516       -33.78838
1.62                   0.9761143       -33.97299
1.624                  0.9755661       -34.15864
1.628                  0.9750076       -34.34534
1.632                  0.9744383        -34.5331
1.636                  0.9738588       -34.72193
1.64                   0.9732692       -34.91183
1.644                  0.9726696       -35.10281
1.648                  0.9720601       -35.29489
1.652                  0.9714409       -35.48808
1.656                  0.9708124       -35.68239
1.66                   0.9701746       -35.87785
1.664                  0.9695277       -36.07445
1.668                  0.9688718       -36.27223
1.672                  0.9682074        -36.4712
1.676                  0.9675342       -36.67139
1.68                   0.9668529       -36.87281
1.684                  0.9661633        -37.0755
1.688                  0.9654659       -37.27947
1.692                  0.9647605       -37.48476
1.696                  0.9640475       -37.69138
1.7                    0.9633271       -37.89939
1.704                  0.9625993        -38.1088
1.708                  0.9618643       -38.31964
1.712                  0.9611222       -38.53196
1.716                   0.960373        -38.7458
1.72                   0.9596171       -38.96118
1.724                  0.9588544       -39.17815
1.728                  0.9580849       -39.39676
1.732                  0.9573087       -39.61704
1.736                  0.9565258       -39.83904
1.74                   0.9557363       -40.06281
1.744                  0.9549401        -40.2884
1.748                  0.9541372       -40.51584
1.752                  0.9533274       -40.74521
1.756                  0.9525108       -40.97655
1.76                   0.9516873        -41.2099
1.764                  0.9508566       -41.44534
1.768                  0.9500185        -41.6829
1.772                  0.9491731       -41.92266
1.776                  0.9483197       -42.16468
1.78                   0.9474586       -42.40899
1.784                  0.9465891       -42.65569
1.788                  0.9457108       -42.90482
1.792                  0.9448237       -43.15645
1.796                  0.9439273       -43.41064
1.8                    0.9430211       -43.66745
1.804                  0.9421047       -43.92696
1.808                  0.9411774       -44.18923
1.812                  0.9402389       -44.45434
1.816                  0.9392887       -44.72233
1.82                   0.9383258       -44.99329
1.824                  0.9373501       -45.26728
1.828                  0.9363605       -45.54438
1.832                  0.9353564       -45.82465
1.836                   0.934337       -46.10817
1.84                   0.9333017       -46.39499
1.844                  0.9322498        -46.6852
1.848                  0.9311798       -46.97887
1.852                  0.9300915       -47.27605
1.856                  0.9289836       -47.57684
1.86                   0.9278552       -47.88129
1.864                  0.9267053       -48.18948
1.868                  0.9255331       -48.50145
1.872                  0.9243371       -48.81732
1.876                  0.9231165       -49.13712
1.88                   0.9218703       -49.46093
1.884                   0.920597       -49.78882
1.888                  0.9192956       -50.12086
1.892                  0.9179649       -50.45711
1.896                  0.9166035       -50.79765
1.9                    0.9152104       -51.14252
1.904                  0.9137841       -51.49181
1.908                  0.9123234       -51.84556
1.912                  0.9108268       -52.20385
1.916                  0.9092933       -52.56673
1.92                   0.9077211       -52.93428
1.924                  0.9061089       -53.30655
1.928                  0.9044557       -53.68359
1.932                  0.9027595       -54.06548
1.936                  0.9010191       -54.45225
1.94                   0.8992333       -54.84398
1.944                  0.8974003       -55.24072
1.948                  0.8955188       -55.64253
1.952                  0.8935872       -56.04944
1.956                  0.8916043       -56.46153
1.96                   0.8895683       -56.87884
1.964                   0.887478       -57.30143
1.968                  0.8853317       -57.72934
1.972                  0.8831282       -58.16262
1.976                  0.8808657       -58.60134
1.98                    0.878543       -59.04552
1.984                  0.8761585       -59.49522
1.988                  0.8737109       -59.95049
1.992                  0.8711987       -60.41138
1.996                  0.8686204       -60.87792
2                      0.8659748       -61.35019
2.004                  0.8632604       -61.82819
2.008                  0.8604758       -62.31199
2.012                  0.8576199       -62.80163
2.016                  0.8546913       -63.29715
2.02                   0.8516885       -63.79862
2.024                  0.8486104       -64.30605
2.028                  0.8454558       -64.81952
2.032                  0.8422236       -65.33902
2.036                  0.8389124       -65.86467
2.04                   0.8355214       -66.39644
2.044                  0.8320493       -66.93444
2.048                  0.8284949        -67.4787
2.052                  0.8248575       -68.02924
2.056                  0.8211361       -68.58613
2.06                   0.8173294       -69.14942
2.064                   0.813437       -69.71916
2.068                  0.8094579       -70.29541
2.072                  0.8053913       -70.87821
2.076                  0.8012364       -71.46763
2.08                   0.7969926       -72.06371
2.084                  0.7926593       -72.66653
2.088                  0.7882359       -73.27615
2.092                  0.7837218       -73.89263
2.096                  0.7791166       -74.51602
2.1                    0.7744199       -75.14643
2.104                  0.7696315       -75.78391
2.108                  0.7647508       -76.42854
2.112                   0.759778       -77.08039
2.116                  0.7547125       -77.73957
2.12                   0.7495546       -78.40615
2.124                  0.7443041       -79.08024
2.128                   0.738961       -79.76193
2.132                  0.7335253       -80.45133
2.136                  0.7279976       -81.14853
2.14                   0.7223779       -81.85368
2.144                  0.7166666       -82.56686
2.148                  0.7108639       -83.28824
2.152                  0.7049706       -84.01795
2.156                   0.698987        -84.7561
2.16                   0.6929138       -85.50287
2.164                  0.6867519       -86.25841
2.168                   0.680502       -87.02293
2.172                  0.6741648       -87.79654
2.176                  0.6677416       -88.57949
2.18                   0.6612332       -89.37197
2.184                  0.6546407       -90.17416
2.188                  0.6479655       -90.98634
2.192                  0.6412089       -91.80871
2.196                  0.6343723       -92.64154
2.2                    0.6274571       -93.48511
2.204                  0.6204651        -94.3397
2.208                  0.6133978       -95.20559
2.212                  0.6062572       -96.08315
2.216                   0.599045       -96.97267
2.22                   0.5917635       -97.87457
2.224                  0.5844145       -98.78919
2.228                  0.5770004       -99.71697
2.232                  0.5695237       -100.6583
2.236                  0.5619866       -101.6137
2.24                   0.5543919       -102.5837
2.244                  0.5467423       -103.5687
2.248                  0.5390406       -104.5694
2.252                    0.53129       -105.5862
2.256                  0.5234933       -106.6199
2.26                   0.5156541       -107.6711
2.264                  0.5077757       -108.7406
2.268                   0.499862        -109.829
2.272                  0.4919165       -110.9372
2.276                  0.4839432        -112.066
2.28                   0.4759465       -113.2164
2.284                  0.4679306       -114.3893
2.288                  0.4599002       -115.5858
2.292                  0.4518601       -116.8069
2.296                  0.4438152       -118.0538
2.3                    0.4357712       -119.3278
2.304                  0.4277333       -120.6301
2.308                  0.4197077       -121.9621
2.312                  0.4117003       -123.3254
2.316                  0.4037179       -124.7214
2.32                   0.3957673       -126.1519
2.324                  0.3878556       -127.6185
2.328                  0.3799906       -129.1231
2.332                  0.3721803       -130.6676
2.336                  0.3644334        -132.254
2.34                   0.3567586       -133.8845
2.344                  0.3491657       -135.5612
2.348                  0.3416645       -137.2864
2.352                  0.3342657       -139.0624