! TOUCHSTONE file generated by CST MICROWAVE STUDIO
! Date and time: Thu May 12 17:57:38 2022
! Project name: AppElm_antenne_dipole_FR4.cst
! Parameters = {L=38.8; e=0.035; f=2.45e+09; h=1.6; i=0.8; l1=4; lambda=122.449; ls=30; wl=1.7; ws=100}
! Header version: 2018
! Port assignment regex: !\s*Touchstone port\s*([0-9]+)\s*=\s*(CST MWS port|CST DS port)\s*([0-9]+|Zmin|Zmax)\s*\(\"(.*)\"\)(\s*mode\s*([0-9]+))?.*
! Touchstone port assignment:
! Touchstone port 1 = CST MWS port 1 ("")
# GHz S MA R 50
0                      0.9999155              -0
0.004                  0.9999152     -0.05499568
0.008                  0.9999145      -0.1099909
0.012                  0.9999133      -0.1649852
0.016                  0.9999117      -0.2199781
0.02                   0.9999095      -0.2749692
0.024                  0.9999069       -0.329958
0.028                  0.9999038      -0.3849441
0.032                  0.9999003       -0.439927
0.036                  0.9998962      -0.4949064
0.04                   0.9998917      -0.5498815
0.044                  0.9998868      -0.6048523
0.048                  0.9998813      -0.6598183
0.052                  0.9998756       -0.714779
0.056                  0.9998693      -0.7697341
0.06                   0.9998626      -0.8246831
0.064                  0.9998556      -0.8796258
0.068                  0.9998481      -0.9345619
0.072                  0.9998403      -0.9894909
0.076                   0.999832       -1.044412
0.08                   0.9998235       -1.099327
0.084                  0.9998145       -1.154233
0.088                  0.9998052       -1.209131
0.092                  0.9997957        -1.26402
0.096                  0.9997857       -1.318902
0.1                    0.9997755       -1.373775
0.104                   0.999765       -1.428638
0.108                  0.9997543       -1.483493
0.112                  0.9997432       -1.538339
0.116                  0.9997321       -1.593176
0.12                   0.9997207       -1.648004
0.124                  0.9997091       -1.702823
0.128                  0.9996973       -1.757633
0.132                  0.9996853       -1.812434
0.136                  0.9996732       -1.867227
0.14                    0.999661       -1.922012
0.144                  0.9996488       -1.976788
0.148                  0.9996364       -2.031556
0.152                   0.999624       -2.086317
0.156                  0.9996116       -2.141071
0.16                   0.9995992       -2.195818
0.164                  0.9995867       -2.250559
0.168                  0.9995744       -2.305294
0.172                  0.9995621       -2.360024
0.176                  0.9995499        -2.41475
0.18                   0.9995379       -2.469473
0.184                   0.999526       -2.524192
0.188                  0.9995142        -2.57891
0.192                  0.9995026       -2.633626
0.196                  0.9994913       -2.688343
0.2                    0.9994801        -2.74306
0.204                  0.9994692        -2.79778
0.208                  0.9994586       -2.852503
0.212                  0.9994484        -2.90723
0.216                  0.9994384       -2.961963
0.22                   0.9994288       -3.016703
0.224                  0.9994197       -3.071452
0.228                  0.9994108       -3.126211
0.232                  0.9994025       -3.180982
0.236                  0.9993946       -3.235766
0.24                   0.9993871       -3.290565
0.244                  0.9993802       -3.345381
0.248                  0.9993737       -3.400216
0.252                  0.9993678       -3.455071
0.256                  0.9993624       -3.509949
0.26                   0.9993576       -3.564851
0.264                  0.9993534       -3.619781
0.268                  0.9993497       -3.674739
0.272                  0.9993467       -3.729728
0.276                  0.9993442       -3.784751
0.28                   0.9993425       -3.839808
0.284                  0.9993414       -3.894904
0.288                  0.9993408       -3.950042
0.292                  0.9993411       -4.005221
0.296                  0.9993419       -4.060446
0.3                    0.9993434       -4.115718
0.304                  0.9993457       -4.171041
0.308                  0.9993487       -4.226417
0.312                  0.9993523       -4.281849
0.316                  0.9993566       -4.337339
0.32                   0.9993614       -4.392891
0.324                  0.9993671       -4.448505
0.328                  0.9993734       -4.504187
0.332                  0.9993804       -4.559937
0.336                   0.999388        -4.61576
0.34                   0.9993963       -4.671656
0.344                  0.9994054        -4.72763
0.348                  0.9994148       -4.783684
0.352                  0.9994251       -4.839821
0.356                  0.9994359       -4.896042
0.36                   0.9994472       -4.952352
0.364                  0.9994592       -5.008751
0.368                  0.9994716       -5.065245
0.372                  0.9994846       -5.121833
0.376                   0.999498        -5.17852
0.38                    0.999512       -5.235306
0.384                  0.9995263       -5.292196
0.388                   0.999541        -5.34919
0.392                  0.9995561       -5.406293
0.396                  0.9995715       -5.463503
0.4                    0.9995872       -5.520826
0.404                  0.9996032       -5.578263
0.408                  0.9996195       -5.635814
0.412                  0.9996359       -5.693483
0.416                  0.9996524       -5.751271
0.42                   0.9996691        -5.80918
0.424                  0.9996859        -5.86721
0.428                  0.9997025       -5.925365
0.432                  0.9997194       -5.983644
0.436                  0.9997359        -6.04205
0.44                   0.9997524       -6.100582
0.444                  0.9997689       -6.159243
0.448                  0.9997851       -6.218032
0.452                   0.999801       -6.276951
0.456                  0.9998168       -6.336001
0.46                    0.999832       -6.395182
0.464                  0.9998469       -6.454493
0.468                  0.9998615       -6.513938
0.472                  0.9998756       -6.573512
0.476                   0.999889       -6.633218
0.48                    0.999902       -6.693056
0.484                  0.9999143       -6.753024
0.488                   0.999926       -6.813123
0.492                  0.9999369       -6.873353
0.496                  0.9999471       -6.933712
0.5                    0.9999566         -6.9942
0.504                  0.9999651       -7.054815
0.508                  0.9999729       -7.115557
0.512                  0.9999798       -7.176424
0.516                  0.9999856       -7.237416
0.52                   0.9999906       -7.298531
0.524                  0.9999945       -7.359767
0.528                  0.9999974       -7.421125
0.532                  0.9999992         -7.4826
0.536                          1       -7.544191
0.54                   0.9999996       -7.605897
0.544                  0.9999981       -7.667715
0.548                  0.9999954       -7.729646
0.552                  0.9999916       -7.791684
0.556                  0.9999866       -7.853831
0.56                   0.9999804       -7.916079
0.564                  0.9999729       -7.978433
0.568                  0.9999643       -8.040884
0.572                  0.9999544       -8.103434
0.576                  0.9999433       -8.166081
0.58                    0.999931       -8.228821
0.584                  0.9999174       -8.291652
0.588                  0.9999028       -8.354571
0.592                  0.9998868       -8.417576
0.596                  0.9998699       -8.480666
0.6                    0.9998516       -8.543837
0.604                  0.9998322        -8.60709
0.608                  0.9998116       -8.670421
0.612                    0.99979       -8.733825
0.616                  0.9997673       -8.797303
0.62                   0.9997436       -8.860854
0.624                  0.9997189       -8.924475
0.628                  0.9996931       -8.988162
0.632                  0.9996666       -9.051918
0.636                  0.9996389       -9.115738
0.64                   0.9996107        -9.17962
0.644                  0.9995816       -9.243566
0.648                  0.9995516       -9.307572
0.652                  0.9995211        -9.37164
0.656                  0.9994899       -9.435766
0.66                   0.9994581        -9.49995
0.664                  0.9994258       -9.564193
0.668                   0.999393       -9.628493
0.672                  0.9993599       -9.692851
0.676                  0.9993264       -9.757267
0.68                   0.9992927       -9.821741
0.684                  0.9992587       -9.886271
0.688                  0.9992246       -9.950863
0.692                  0.9991905       -10.01551
0.696                  0.9991563       -10.08022
0.7                    0.9991223         -10.145
0.704                  0.9990883       -10.20984
0.708                  0.9990545       -10.27474
0.712                  0.9990212       -10.33971
0.716                   0.998988       -10.40475
0.72                   0.9989554       -10.46986
0.724                  0.9989232       -10.53504
0.728                  0.9988914       -10.60031
0.732                  0.9988605       -10.66565
0.736                  0.9988302       -10.73108
0.74                   0.9988006       -10.79659
0.744                  0.9987718        -10.8622
0.748                  0.9987439        -10.9279
0.752                   0.998717        -10.9937
0.756                   0.998691        -11.0596
0.76                   0.9986661       -11.12562
0.764                  0.9986423       -11.19174
0.768                  0.9986196       -11.25798
0.772                  0.9985981       -11.32435
0.776                  0.9985777       -11.39085
0.78                   0.9985587       -11.45748
0.784                   0.998541       -11.52425
0.788                  0.9985247       -11.59116
0.792                  0.9985097       -11.65823
0.796                  0.9984961       -11.72545
0.8                    0.9984839       -11.79284
0.804                  0.9984731        -11.8604
0.808                  0.9984637       -11.92813
0.812                  0.9984559       -11.99605
0.816                  0.9984494       -12.06416
0.82                   0.9984444       -12.13246
0.824                  0.9984409       -12.20097
0.828                  0.9984387       -12.26969
0.832                   0.998438       -12.33862
0.836                  0.9984386       -12.40778
0.84                   0.9984406       -12.47716
0.844                   0.998444       -12.54679
0.848                  0.9984487       -12.61666
0.852                  0.9984547       -12.68677
0.856                  0.9984619       -12.75715
0.86                   0.9984702       -12.82779
0.864                  0.9984797       -12.89869
0.868                  0.9984902       -12.96988
0.872                  0.9985017       -13.04135
0.876                  0.9985142        -13.1131
0.88                   0.9985275       -13.18515
0.884                  0.9985417        -13.2575
0.888                  0.9985565       -13.33015
0.892                   0.998572       -13.40312
0.896                   0.998588        -13.4764
0.9                    0.9986045          -13.55
0.904                  0.9986213       -13.62393
0.908                  0.9986384       -13.69819
0.912                  0.9986556       -13.77279
0.916                  0.9986729       -13.84772
0.92                   0.9986902         -13.923
0.924                  0.9987073       -13.99862
0.928                  0.9987242        -14.0746
0.932                  0.9987407       -14.15092
0.936                  0.9987568       -14.22761
0.94                   0.9987722       -14.30465
0.944                  0.9987869       -14.38205
0.948                  0.9988008       -14.45981
0.952                  0.9988137       -14.53794
0.956                  0.9988258       -14.61643
0.96                   0.9988365       -14.69528
0.964                   0.998846       -14.77451
0.968                  0.9988541        -14.8541
0.972                  0.9988607       -14.93405
0.976                  0.9988657       -15.01437
0.98                   0.9988688       -15.09507
0.984                  0.9988703       -15.17612
0.988                  0.9988698       -15.25754
0.992                  0.9988673       -15.33932
0.996                  0.9988625       -15.42146
1                      0.9988557       -15.50396
1.004                  0.9988464       -15.58681
1.008                  0.9988347       -15.67003
1.012                  0.9988205       -15.75359
1.016                  0.9988038        -15.8375
1.02                   0.9987844       -15.92175
1.024                  0.9987622       -16.00635
1.028                  0.9987372       -16.09129
1.032                  0.9987094       -16.17655
1.036                  0.9986786       -16.26215
1.04                   0.9986449       -16.34807
1.044                  0.9986082       -16.43433
1.048                  0.9985684       -16.52091
1.052                  0.9985254       -16.60779
1.056                  0.9984795       -16.69497
1.06                   0.9984304       -16.78247
1.064                  0.9983781       -16.87028
1.068                  0.9983226       -16.95834
1.072                   0.998264       -17.04672
1.076                  0.9982022       -17.13541
1.08                   0.9981373       -17.22436
1.084                  0.9980693       -17.31356
1.088                  0.9979981       -17.40306
1.092                   0.997924       -17.49287
1.096                  0.9978467       -17.58289
1.1                    0.9977666       -17.67316
1.104                  0.9976834        -17.7637
1.108                  0.9975974       -17.85451
1.112                  0.9975086       -17.94555
1.116                   0.997417       -18.03688
1.12                   0.9973229       -18.12843
1.124                   0.997226       -18.22017
1.128                  0.9971267       -18.31221
1.132                  0.9970251       -18.40446
1.136                  0.9969212       -18.49695
1.14                   0.9968151       -18.58967
1.144                  0.9967069       -18.68262
1.148                  0.9965967        -18.7758
1.152                  0.9964848       -18.86922
1.156                  0.9963711       -18.96286
1.16                   0.9962558       -19.05674
1.164                   0.996139       -19.15085
1.168                  0.9960209        -19.2452
1.172                  0.9959016       -19.33977
1.176                  0.9957813       -19.43459
1.18                   0.9956601       -19.52965
1.184                   0.995538       -19.62496
1.188                  0.9954153       -19.72051
1.192                  0.9952922       -19.81632
1.196                  0.9951687       -19.91238
1.2                    0.9950449       -20.00871
1.204                  0.9949211       -20.10531
1.208                  0.9947974       -20.20219
1.212                  0.9946738       -20.29935
1.216                  0.9945506        -20.3968
1.22                    0.994428       -20.49455
1.224                  0.9943059       -20.59262
1.228                  0.9941845         -20.691
1.232                  0.9940639        -20.7897
1.236                  0.9939443       -20.88875
1.24                   0.9938258       -20.98814
1.244                  0.9937085        -21.0879
1.248                  0.9935925       -21.18802
1.252                   0.993478       -21.28854
1.256                  0.9933647       -21.38945
1.26                   0.9932532       -21.49077
1.264                  0.9931432       -21.59252
1.268                  0.9930349        -21.6947
1.272                  0.9929284       -21.79734
1.276                  0.9928237       -21.90045
1.28                   0.9927208       -22.00404
1.284                  0.9926198       -22.10812
1.288                  0.9925207       -22.21273
1.292                  0.9924235       -22.31786
1.296                  0.9923282       -22.42354
1.3                    0.9922349       -22.52979
1.304                  0.9921434       -22.63661
1.308                  0.9920538       -22.74404
1.312                   0.991966       -22.85207
1.316                  0.9918799       -22.96074
1.32                   0.9917957       -23.07006
1.324                   0.991713       -23.18005
1.328                  0.9916319       -23.29072
1.332                  0.9915523       -23.40209
1.336                   0.991474       -23.51418
1.34                    0.991397       -23.62701
1.344                  0.9913211       -23.74059
1.348                  0.9912461       -23.85493
1.352                  0.9911719       -23.97007
1.356                  0.9910985       -24.08601
1.36                   0.9910257       -24.20277
1.364                  0.9909531       -24.32037
1.368                  0.9908806       -24.43882
1.372                   0.990808       -24.55814
1.376                  0.9907353       -24.67834
1.38                    0.990662       -24.79945
1.384                   0.990588       -24.92146
1.388                   0.990513        -25.0444
1.392                  0.9904369       -25.16829
1.396                  0.9903593       -25.29313
1.4                      0.99028       -25.41894
1.404                  0.9901987       -25.54572
1.408                  0.9901153        -25.6735
1.412                  0.9900293       -25.80229
1.416                  0.9899407       -25.93208
1.42                   0.9898488        -26.0629
1.424                  0.9897537       -26.19476
1.428                  0.9896548       -26.32766
1.432                  0.9895521       -26.46161
1.436                  0.9894451       -26.59662
1.44                   0.9893335        -26.7327
1.444                  0.9892171       -26.86985
1.448                  0.9890956       -27.00808
1.452                  0.9889688       -27.14739
1.456                   0.988836        -27.2878
1.46                   0.9886975        -27.4293
1.464                  0.9885524        -27.5719
1.468                  0.9884007        -27.7156
1.472                  0.9882422       -27.86041
1.476                  0.9880765       -28.00632
1.48                   0.9879033       -28.15334
1.484                  0.9877223       -28.30147
1.488                  0.9875335        -28.4507
1.492                  0.9873362       -28.60105
1.496                  0.9871305       -28.75251
1.5                    0.9869161       -28.90507
1.504                  0.9866926       -29.05875
1.508                  0.9864598       -29.21352
1.512                  0.9862177        -29.3694
1.516                  0.9859658       -29.52638
1.52                   0.9857041       -29.68446
1.524                  0.9854322       -29.84363
1.528                  0.9851503        -30.0039
1.532                  0.9848578       -30.16525
1.536                  0.9845547       -30.32769
1.54                   0.9842411       -30.49121
1.544                  0.9839166       -30.65581
1.548                   0.983581       -30.82149
1.552                  0.9832345       -30.98823
1.556                  0.9828766       -31.15604
1.56                   0.9825077       -31.32491
1.564                  0.9821274       -31.49484
1.568                  0.9817357       -31.66584
1.572                  0.9813328       -31.83789
1.576                  0.9809182       -32.01099
1.58                   0.9804923       -32.18513
1.584                   0.980055       -32.36033
1.588                  0.9796061       -32.53657
1.592                   0.979146       -32.71386
1.596                  0.9786744       -32.89219
1.6                    0.9781914       -33.07157
1.604                  0.9776972       -33.25199
1.608                  0.9771917       -33.43348
1.612                  0.9766753         -33.616
1.616                  0.9761477       -33.79958
1.62                   0.9756092       -33.98422
1.624                  0.9750599       -34.16993
1.628                     0.9745       -34.35671
1.632                  0.9739295       -34.54455
1.636                  0.9733485       -34.73349
1.64                   0.9727573       -34.92352
1.644                  0.9721558       -35.11466
1.648                  0.9715446       -35.30691
1.652                  0.9709233       -35.50029
1.656                  0.9702926       -35.69482
1.66                   0.9696524       -35.89049
1.664                  0.9690027       -36.08736
1.668                  0.9683439       -36.28541
1.672                  0.9676762       -36.48467
1.676                  0.9669995       -36.68517
1.68                   0.9663143       -36.88692
1.684                  0.9656207       -37.08996
1.688                  0.9649186       -37.29429
1.692                  0.9642082       -37.49996
1.696                  0.9634899         -37.707
1.7                    0.9627636       -37.91542
1.704                  0.9620296       -38.12526
1.708                  0.9612878       -38.33656
1.712                  0.9605385       -38.54935
1.716                  0.9597818       -38.76365
1.72                   0.9590175       -38.97953
1.724                  0.9582459         -39.197
1.728                  0.9574671       -39.41613
1.732                  0.9566808       -39.63694
1.736                  0.9558875       -39.85947
1.74                   0.9550867       -40.08378
1.744                  0.9542787        -40.3099
1.748                  0.9534633       -40.53791
1.752                  0.9526404       -40.76783
1.756                  0.9518099       -40.99972
1.76                   0.9509719       -41.23363
1.764                   0.950126       -41.46962
1.768                   0.949272       -41.70774
1.772                  0.9484098       -41.94805
1.776                  0.9475392       -42.19061
1.78                   0.9466598       -42.43547
1.784                  0.9457715       -42.68268
1.788                  0.9448736       -42.93233
1.792                  0.9439662       -43.18447
1.796                  0.9430484       -43.43915
1.8                    0.9421203       -43.69644
1.804                  0.9411812       -43.95641
1.808                  0.9402305       -44.21912
1.812                  0.9392677       -44.48465
1.816                  0.9382924       -44.75303
1.82                   0.9373038       -45.02437
1.824                  0.9363016        -45.2987
1.828                  0.9352847       -45.57611
1.832                  0.9342526       -45.85667
1.836                  0.9332044       -46.14043
1.84                   0.9321397       -46.42748
1.844                  0.9310574       -46.71787
1.848                  0.9299567       -47.01168
1.852                  0.9288367       -47.30897
1.856                  0.9276966       -47.60982
1.86                   0.9265353       -47.91428
1.864                  0.9253519       -48.22244
1.868                  0.9241454       -48.53435
1.872                  0.9229146       -48.85009
1.876                  0.9216586       -49.16972
1.88                   0.9203764       -49.49331
1.884                  0.9190666       -49.82092
1.888                  0.9177281       -50.15263
1.892                  0.9163598        -50.4885
1.896                  0.9149604       -50.82858
1.9                    0.9135288       -51.17293
1.904                  0.9120635       -51.52165
1.908                  0.9105636       -51.87478
1.912                  0.9090272       -52.23237
1.916                  0.9074536       -52.59449
1.92                    0.905841       -52.96121
1.924                  0.9041883       -53.33258
1.928                   0.902494       -53.70865
1.932                  0.9007567        -54.0895
1.936                   0.898975       -54.47518
1.94                   0.8971476       -54.86572
1.944                  0.8952729       -55.26121
1.948                  0.8933496       -55.66168
1.952                  0.8913762        -56.0672
1.956                  0.8893514        -56.4778
1.96                   0.8872736       -56.89355
1.964                  0.8851412        -57.3145
1.968                  0.8829531       -57.74069
1.972                  0.8807077       -58.17218
1.976                  0.8784036       -58.60901
1.98                   0.8760395       -59.05123
1.984                  0.8736137       -59.49889
1.988                  0.8711249       -59.95203
1.992                  0.8685718       -60.41071
1.996                   0.865953       -60.87496
2                       0.863267       -61.34483
2.004                  0.8605127       -61.82037
2.008                  0.8576887       -62.30161
2.012                  0.8547934       -62.78861
2.016                  0.8518258       -63.28141
2.02                   0.8487847       -63.78004
2.024                  0.8456688       -64.28457
2.028                  0.8424768       -64.79503
2.032                  0.8392076       -65.31148
2.036                  0.8358602       -65.83393
2.04                   0.8324334       -66.36245
2.044                   0.828926       -66.89708
2.048                  0.8253372       -67.43787
2.052                  0.8216659       -67.98487
2.056                  0.8179112       -68.53811
2.06                   0.8140721       -69.09767
2.064                  0.8101479       -69.66358
2.068                  0.8061376        -70.2359
2.072                  0.8020405       -70.81467
2.076                  0.7978561       -71.39997
2.08                   0.7935835       -71.99183
2.084                  0.7892221       -72.59033
2.088                  0.7847714       -73.19551
2.092                  0.7802309       -73.80747
2.096                  0.7755999       -74.42626
2.1                    0.7708784       -75.05193
2.104                   0.766066       -75.68457
2.108                  0.7611622       -76.32426
2.112                  0.7561669       -76.97106
2.116                  0.7510801       -77.62508
2.12                   0.7459015       -78.28641
2.124                  0.7406312       -78.95511
2.128                  0.7352692       -79.63133
2.132                  0.7298155       -80.31511
2.136                  0.7242705        -81.0066
2.14                   0.7186344        -81.7059
2.144                  0.7129074       -82.41313
2.148                    0.70709       -83.12842
2.152                  0.7011827       -83.85192
2.156                   0.695186       -84.58375
2.16                   0.6891006       -85.32407
2.164                   0.682927       -86.07304
2.168                  0.6766662       -86.83081
2.172                  0.6703189        -87.5976
2.176                  0.6638863       -88.37356
2.18                   0.6573691       -89.15889
2.184                  0.6507687       -89.95382
2.188                  0.6440861       -90.75858
2.192                  0.6373226       -91.57339
2.196                  0.6304798       -92.39851
2.2                    0.6235588        -93.2342
2.204                  0.6165617       -94.08076
2.208                  0.6094897       -94.93846
2.212                  0.6023447       -95.80766
2.216                  0.5951286       -96.68866
2.22                   0.5878434       -97.58186
2.224                  0.5804912       -98.48762
2.228                  0.5730741       -99.40636
2.232                  0.5655943       -100.3385
2.236                  0.5580545       -101.2845
2.24                   0.5504571       -102.2449
2.244                  0.5428048       -103.2201
2.248                  0.5351004       -104.2107
2.252                  0.5273466       -105.2174
2.256                  0.5195469       -106.2407
2.26                   0.5117042       -107.2814
2.264                  0.5038221         -108.34
2.268                   0.495904       -109.4175
2.272                  0.4879536       -110.5145
2.276                  0.4799749       -111.6319
2.28                   0.4719719       -112.7707
2.284                   0.463949       -113.9318
2.288                  0.4559105       -115.1163
2.292                  0.4478612       -116.3252
2.296                  0.4398062       -117.5598
2.3                    0.4317505       -118.8212
2.304                  0.4236997       -120.1109
2.308                  0.4156594       -121.4301
2.312                  0.4076359       -122.7804
2.316                  0.3996355       -124.1634
2.32                   0.3916648       -125.5808
2.324                  0.3837311       -127.0343
2.328                  0.3758418       -128.5258
2.332                  0.3680049       -130.0572
2.336                  0.3602287       -131.6307
2.34                   0.3525222       -133.2484
2.344                  0.3448945       -134.9127
2.348                  0.3373558       -136.6257
2.352                  0.3299164       -138.3901