! TOUCHSTONE file generated by CST MICROWAVE STUDIO
! Date and time: Sat May 14 11:21:40 2022
! Project name: AppElm_antenne_dipole_Alumina.cst
! Parameters = {L=33; e=0.035; f=2.45e+09; h=1.6; i=0.8; l1=2; lambda=122.449; ls=30; wl=1.7; ws=80}
! Header version: 2018
! Port assignment regex: !\s*Touchstone port\s*([0-9]+)\s*=\s*(CST MWS port|CST DS port)\s*([0-9]+|Zmin|Zmax)\s*\(\"(.*)\"\)(\s*mode\s*([0-9]+))?.*
! Touchstone port assignment:
! Touchstone port 1 = CST MWS port 1 ("")
# GHz S MA R 50
0                              1              -0
0.004                  0.9999987     -0.06968277
0.008                  0.9999945      -0.1393582
0.012                  0.9999875      -0.2090189
0.016                  0.9999778      -0.2786576
0.02                   0.9999654      -0.3482671
0.024                  0.9999503      -0.4178402
0.028                  0.9999324      -0.4873699
0.032                  0.9999121      -0.5568492
0.036                  0.9998892      -0.6262713
0.04                   0.9998637      -0.6956297
0.044                  0.9998358      -0.7649179
0.048                  0.9998056      -0.8341295
0.052                  0.9997731      -0.9032586
0.056                  0.9997385      -0.9722996
0.06                   0.9997017       -1.041247
0.064                  0.9996629       -1.110094
0.068                   0.999622       -1.178838
0.072                  0.9995795       -1.247473
0.076                  0.9995352       -1.315994
0.08                   0.9994894       -1.384399
0.084                   0.999442       -1.452682
0.088                  0.9993935       -1.520841
0.092                  0.9993436       -1.588872
0.096                  0.9992925       -1.656773
0.1                    0.9992407       -1.724542
0.104                   0.999188       -1.792177
0.108                  0.9991346       -1.859676
0.112                  0.9990806       -1.927038
0.116                  0.9990262       -1.994262
0.12                   0.9989715       -2.061349
0.124                  0.9989169       -2.128298
0.128                  0.9988621        -2.19511
0.132                  0.9988075       -2.261786
0.136                  0.9987533       -2.328327
0.14                   0.9986995       -2.394735
0.144                  0.9986462       -2.461012
0.148                  0.9985937       -2.527162
0.152                   0.998542       -2.593186
0.156                  0.9984914       -2.659089
0.16                   0.9984418       -2.724873
0.164                  0.9983935       -2.790545
0.168                  0.9983466       -2.856107
0.172                  0.9983012       -2.921566
0.176                  0.9982576       -2.986925
0.18                   0.9982154       -3.052192
0.184                  0.9981752       -3.117372
0.188                  0.9981371       -3.182471
0.192                   0.998101       -3.247496
0.196                   0.998067       -3.312454
0.2                    0.9980352       -3.377352
0.204                  0.9980057       -3.442198
0.208                  0.9979788       -3.506999
0.212                  0.9979542       -3.571764
0.216                  0.9979322         -3.6365
0.22                   0.9979128       -3.701216
0.224                  0.9978961        -3.76592
0.228                   0.997882       -3.830622
0.232                  0.9978709       -3.895329
0.236                  0.9978622       -3.960051
0.24                   0.9978565       -4.024797
0.244                  0.9978536       -4.089575
0.248                  0.9978535       -4.154395
0.252                  0.9978562       -4.219267
0.256                  0.9978616       -4.284201
0.26                   0.9978701       -4.349201
0.264                  0.9978811       -4.414281
0.268                   0.997895       -4.479449
0.272                  0.9979116       -4.544714
0.276                  0.9979308       -4.610082
0.28                   0.9979527       -4.675566
0.284                  0.9979773       -4.741172
0.288                  0.9980042        -4.80691
0.292                  0.9980337       -4.872786
0.296                  0.9980655        -4.93881
0.3                    0.9980996        -5.00499
0.304                  0.9981358       -5.071331
0.308                  0.9981742       -5.137843
0.312                  0.9982145       -5.204532
0.316                  0.9982568       -5.271405
0.32                   0.9983009       -5.338468
0.324                  0.9983465       -5.405727
0.328                  0.9983939       -5.473188
0.332                  0.9984424       -5.540857
0.336                  0.9984925       -5.608739
0.34                   0.9985437       -5.676837
0.344                  0.9985957       -5.745158
0.348                  0.9986489       -5.813702
0.352                  0.9987027       -5.882476
0.356                  0.9987571       -5.951483
0.36                   0.9988119       -6.020724
0.364                  0.9988671       -6.090202
0.368                  0.9989225       -6.159919
0.372                  0.9989778       -6.229877
0.376                  0.9990331       -6.300075
0.38                   0.9990879       -6.370516
0.384                  0.9991425       -6.441197
0.388                  0.9991965        -6.51212
0.392                  0.9992497       -6.583286
0.396                  0.9993021       -6.654691
0.4                    0.9993534       -6.726333
0.404                  0.9994037       -6.798212
0.408                  0.9994526       -6.870326
0.412                     0.9995       -6.942671
0.416                   0.999546       -7.015243
0.42                   0.9995901       -7.088041
0.424                  0.9996325       -7.161059
0.428                  0.9996731       -7.234294
0.432                  0.9997115        -7.30774
0.436                  0.9997477       -7.381393
0.44                   0.9997819       -7.455249
0.444                  0.9998133       -7.529301
0.448                  0.9998426       -7.603544
0.452                  0.9998692       -7.677971
0.456                  0.9998931       -7.752578
0.46                   0.9999145       -7.827355
0.464                   0.999933       -7.902298
0.468                  0.9999486       -7.977399
0.472                  0.9999614       -8.052651
0.476                  0.9999714       -8.128047
0.48                   0.9999781       -8.203579
0.484                  0.9999819       -8.279241
0.488                  0.9999827       -8.355025
0.492                  0.9999804       -8.430922
0.496                  0.9999751       -8.506926
0.5                    0.9999666       -8.583029
0.504                  0.9999552       -8.659222
0.508                  0.9999407       -8.735499
0.512                   0.999923       -8.811852
0.516                  0.9999024       -8.888273
0.52                   0.9998789       -8.964754
0.524                  0.9998524       -9.041289
0.528                   0.999823       -9.117871
0.532                  0.9997909       -9.194493
0.536                  0.9997558       -9.271146
0.54                   0.9997182       -9.347825
0.544                   0.999678       -9.424523
0.548                  0.9996352       -9.501235
0.552                    0.99959       -9.577953
0.556                  0.9995425       -9.654674
0.56                   0.9994927        -9.73139
0.564                  0.9994408       -9.808099
0.568                   0.999387       -9.884792
0.572                  0.9993313       -9.961467
0.576                  0.9992738       -10.03812
0.58                   0.9992147       -10.11475
0.584                  0.9991541       -10.19135
0.588                  0.9990922       -10.26792
0.592                  0.9990291       -10.34445
0.596                  0.9989648       -10.42095
0.6                    0.9988997       -10.49741
0.604                  0.9988339       -10.57383
0.608                  0.9987675       -10.65021
0.612                  0.9987005       -10.72655
0.616                  0.9986333       -10.80285
0.62                    0.998566       -10.87911
0.624                  0.9984986       -10.95534
0.628                  0.9984315       -11.03153
0.632                  0.9983648       -11.10769
0.636                  0.9982985       -11.18381
0.64                   0.9982328       -11.25991
0.644                   0.998168       -11.33598
0.648                  0.9981041       -11.41203
0.652                  0.9980413       -11.48807
0.656                  0.9979799       -11.56409
0.66                   0.9979198       -11.64011
0.664                  0.9978611       -11.71613
0.668                  0.9978042       -11.79216
0.672                  0.9977491        -11.8682
0.676                   0.997696       -11.94426
0.68                   0.9976447       -12.02035
0.684                   0.997596       -12.09648
0.688                  0.9975493       -12.17265
0.692                  0.9975051       -12.24887
0.696                  0.9974634       -12.32516
0.7                    0.9974241       -12.40151
0.704                  0.9973876       -12.47795
0.708                  0.9973539       -12.55448
0.712                   0.997323       -12.63111
0.716                   0.997295       -12.70784
0.72                   0.9972698        -12.7847
0.724                  0.9972478        -12.8617
0.728                  0.9972287       -12.93883
0.732                  0.9972127       -13.01612
0.736                  0.9971996       -13.09358
0.74                   0.9971899       -13.17122
0.744                  0.9971831       -13.24904
0.748                  0.9971795       -13.32706
0.752                  0.9971789       -13.40529
0.756                  0.9971814       -13.48375
0.76                   0.9971869       -13.56244
0.764                  0.9971954       -13.64137
0.768                  0.9972069       -13.72056
0.772                  0.9972214       -13.80002
0.776                  0.9972386       -13.87976
0.78                   0.9972586       -13.95978
0.784                  0.9972812       -14.04011
0.788                  0.9973065       -14.12075
0.792                  0.9973344       -14.20171
0.796                  0.9973645         -14.283
0.8                    0.9973969       -14.36463
0.804                  0.9974315       -14.44661
0.808                  0.9974683       -14.52895
0.812                  0.9975069       -14.61166
0.816                  0.9975472       -14.69474
0.82                   0.9975892       -14.77822
0.824                  0.9976328       -14.86208
0.828                  0.9976776       -14.94634
0.832                  0.9977236       -15.03101
0.836                  0.9977706        -15.1161
0.84                   0.9978184        -15.2016
0.844                  0.9978669       -15.28753
0.848                  0.9979159       -15.37389
0.852                  0.9979651       -15.46068
0.856                  0.9980146       -15.54791
0.86                    0.998064       -15.63559
0.864                  0.9981131        -15.7237
0.868                  0.9981618       -15.81227
0.872                  0.9982099       -15.90129
0.876                  0.9982572       -15.99076
0.88                   0.9983035       -16.08069
0.884                  0.9983486       -16.17106
0.888                  0.9983924       -16.26189
0.892                  0.9984346       -16.35318
0.896                  0.9984752       -16.44492
0.9                    0.9985138       -16.53711
0.904                  0.9985504       -16.62975
0.908                  0.9985846       -16.72283
0.912                  0.9986166       -16.81637
0.916                  0.9986458       -16.91034
0.92                   0.9986724       -17.00475
0.924                   0.998696       -17.09959
0.928                  0.9987166       -17.19487
0.932                   0.998734       -17.29056
0.936                  0.9987482       -17.38668
0.94                   0.9987588       -17.48321
0.944                  0.9987659       -17.58015
0.948                  0.9987692       -17.67748
0.952                  0.9987688       -17.77522
0.956                  0.9987643       -17.87333
0.96                    0.998756       -17.97184
0.964                  0.9987435       -18.07071
0.968                  0.9987268       -18.16994
0.972                  0.9987059       -18.26954
0.976                  0.9986808       -18.36949
0.98                   0.9986512       -18.46978
0.984                  0.9986174        -18.5704
0.988                  0.9985791       -18.67134
0.992                  0.9985364       -18.77261
0.996                  0.9984892       -18.87418
1                      0.9984376       -18.97606
1.004                  0.9983815       -19.07823
1.008                  0.9983211       -19.18066
1.012                  0.9982562       -19.28339
1.016                  0.9981869       -19.38639
1.02                   0.9981133       -19.48966
1.024                  0.9980355       -19.59318
1.028                  0.9979536       -19.69689
1.032                  0.9978675        -19.8009
1.036                  0.9977773       -19.90513
1.04                   0.9976832       -20.00955
1.044                  0.9975854       -20.11424
1.048                  0.9974837       -20.21912
1.052                  0.9973784        -20.3242
1.056                  0.9972697       -20.42947
1.06                   0.9971577       -20.53495
1.064                  0.9970424       -20.64063
1.068                   0.996924       -20.74647
1.072                  0.9968028        -20.8525
1.076                  0.9966788       -20.95875
1.08                   0.9965523       -21.06517
1.084                  0.9964232       -21.17172
1.088                  0.9962919       -21.27849
1.092                  0.9961587       -21.38542
1.096                  0.9960236       -21.49252
1.1                    0.9958867       -21.59981
1.104                  0.9957484       -21.70726
1.108                  0.9956088       -21.81487
1.112                  0.9954681       -21.92271
1.116                  0.9953265       -22.03071
1.12                   0.9951841        -22.1389
1.124                  0.9950414       -22.24725
1.128                  0.9948981       -22.35583
1.132                  0.9947549        -22.4646
1.136                  0.9946117       -22.57358
1.14                   0.9944688       -22.68278
1.144                  0.9943263       -22.79221
1.148                  0.9941846       -22.90186
1.152                  0.9940437       -23.01175
1.156                  0.9939037       -23.12189
1.16                    0.993765        -23.2323
1.164                  0.9936277       -23.34297
1.168                  0.9934918       -23.45393
1.172                  0.9933577       -23.56519
1.176                  0.9932254       -23.67675
1.18                    0.993095       -23.78863
1.184                  0.9929668       -23.90085
1.188                  0.9928409       -24.01342
1.192                  0.9927173       -24.12635
1.196                  0.9925962       -24.23967
1.2                    0.9924779       -24.35338
1.204                  0.9923621        -24.4675
1.208                   0.992249       -24.58205
1.212                  0.9921388       -24.69705
1.216                  0.9920314       -24.81251
1.22                    0.991927       -24.92846
1.224                  0.9918256       -25.04491
1.228                  0.9917272       -25.16188
1.232                  0.9916317       -25.27938
1.236                  0.9915394       -25.39744
1.24                   0.9914501       -25.51608
1.244                  0.9913636       -25.63532
1.248                  0.9912802       -25.75517
1.252                  0.9911995       -25.87565
1.256                  0.9911219       -25.99679
1.26                   0.9910469       -26.11861
1.264                  0.9909746       -26.24112
1.268                  0.9909049       -26.36434
1.272                  0.9908377       -26.48829
1.276                  0.9907728         -26.613
1.28                   0.9907101       -26.73848
1.284                  0.9906494       -26.86475
1.288                  0.9905907       -26.99183
1.292                  0.9905336       -27.11973
1.296                  0.9904781       -27.24849
1.3                    0.9904239        -27.3781
1.304                   0.990371        -27.5086
1.308                  0.9903189          -27.64
1.312                  0.9902674       -27.77231
1.316                  0.9902164       -27.90555
1.32                   0.9901656       -28.03975
1.324                  0.9901148        -28.1749
1.328                  0.9900638       -28.31104
1.332                  0.9900121       -28.44816
1.336                  0.9899596       -28.58629
1.34                   0.9899058       -28.72545
1.344                  0.9898506       -28.86563
1.348                  0.9897937       -29.00686
1.352                  0.9897349       -29.14914
1.356                  0.9896736       -29.29249
1.36                   0.9896096       -29.43692
1.364                  0.9895427       -29.58243
1.368                  0.9894726       -29.72904
1.372                  0.9893988       -29.87675
1.376                  0.9893208       -30.02557
1.38                   0.9892389       -30.17551
1.384                  0.9891524       -30.32657
1.388                   0.989061       -30.47876
1.392                  0.9889642       -30.63208
1.396                  0.9888621       -30.78654
1.4                     0.988754       -30.94215
1.404                  0.9886397       -31.09889
1.408                   0.988519       -31.25679
1.412                  0.9883915       -31.41583
1.416                  0.9882569       -31.57602
1.42                   0.9881149       -31.73737
1.424                  0.9879653       -31.89986
1.428                  0.9878077       -32.06351
1.432                   0.987642       -32.22829
1.436                  0.9874677       -32.39423
1.44                   0.9872847       -32.56132
1.444                  0.9870927       -32.72954
1.448                  0.9868914        -32.8989
1.452                  0.9866807       -33.06941
1.456                  0.9864603       -33.24104
1.46                   0.9862299       -33.41381
1.464                  0.9859896       -33.58768
1.468                  0.9857388        -33.7627
1.472                  0.9854777       -33.93882
1.476                   0.985206       -34.11606
1.48                   0.9849236       -34.29439
1.484                  0.9846301       -34.47383
1.488                  0.9843257       -34.65437
1.492                  0.9840101       -34.83599
1.496                  0.9836832       -35.01871
1.5                    0.9833451        -35.2025
1.504                  0.9829955       -35.38738
1.508                  0.9826345       -35.57331
1.512                  0.9822622       -35.76033
1.516                   0.981878        -35.9484
1.52                   0.9814824       -36.13753
1.524                  0.9810753       -36.32772
1.528                  0.9806567       -36.51896
1.532                  0.9802265       -36.71125
1.536                  0.9797847       -36.90459
1.54                   0.9793315       -37.09897
1.544                   0.978867       -37.29441
1.548                   0.978391       -37.49089
1.552                   0.977904        -37.6884
1.556                  0.9774055       -37.88698
1.56                   0.9768963       -38.08659
1.564                  0.9763759       -38.28727
1.568                  0.9758447         -38.489
1.572                  0.9753028       -38.69178
1.576                  0.9747502       -38.89563
1.58                   0.9741874       -39.10055
1.584                  0.9736142       -39.30656
1.588                  0.9730308       -39.51365
1.592                  0.9724376       -39.72183
1.596                  0.9718344       -39.93112
1.6                    0.9712215       -40.14153
1.604                  0.9705992       -40.35308
1.608                  0.9699677       -40.56576
1.612                   0.969327       -40.77961
1.616                  0.9686774       -40.99465
1.62                    0.968019       -41.21087
1.624                  0.9673519        -41.4283
1.628                  0.9666763       -41.64698
1.632                  0.9659925       -41.86691
1.636                  0.9653005       -42.08813
1.64                   0.9646007       -42.31064
1.644                  0.9638929       -42.53449
1.648                  0.9631774       -42.75969
1.652                  0.9624545       -42.98629
1.656                  0.9617241        -43.2143
1.66                   0.9609864       -43.44375
1.664                  0.9602414       -43.67469
1.668                  0.9594892       -43.90715
1.672                  0.9587301       -44.14115
1.676                   0.957964       -44.37674
1.68                   0.9571909       -44.61396
1.684                  0.9564107       -44.85285
1.688                  0.9556238       -45.09344
1.692                  0.9548299       -45.33577
1.696                   0.954029        -45.5799
1.7                     0.953221       -45.82586
1.704                  0.9524061        -46.0737
1.708                   0.951584       -46.32347
1.712                  0.9507545       -46.57522
1.716                  0.9499177       -46.82899
1.72                   0.9490733       -47.08483
1.724                   0.948221       -47.34281
1.728                  0.9473609       -47.60294
1.732                  0.9464925       -47.86533
1.736                  0.9456157       -48.12999
1.74                   0.9447301       -48.39698
1.744                  0.9438354       -48.66637
1.748                  0.9429314       -48.93821
1.752                  0.9420174       -49.21256
1.756                  0.9410934       -49.48946
1.76                   0.9401587       -49.76899
1.764                  0.9392128       -50.05119
1.768                  0.9382557       -50.33613
1.772                  0.9372862       -50.62387
1.776                  0.9363041       -50.91446
1.78                    0.935309       -51.20797
1.784                  0.9343001       -51.50444
1.788                  0.9332768       -51.80396
1.792                  0.9322383       -52.10656
1.796                   0.931184       -52.41234
1.8                    0.9301134       -52.72131
1.804                  0.9290256       -53.03356
1.808                  0.9279197       -53.34914
1.812                  0.9267952       -53.66811
1.816                  0.9256509       -53.99055
1.82                   0.9244863       -54.31649
1.824                  0.9233003       -54.64601
1.828                  0.9220923       -54.97914
1.832                   0.920861       -55.31596
1.836                  0.9196058       -55.65654
1.84                   0.9183254       -56.00092
1.844                  0.9170191       -56.34915
1.848                  0.9156859       -56.70129
1.852                  0.9143246       -57.05741
1.856                  0.9129343       -57.41755
1.86                   0.9115139       -57.78177
1.864                  0.9100623       -58.15012
1.868                  0.9085785       -58.52265
1.872                  0.9070613       -58.89943
1.876                  0.9055095        -59.2805
1.88                   0.9039224       -59.66589
1.884                  0.9022985       -60.05569
1.888                  0.9006366       -60.44991
1.892                  0.8989359       -60.84863
1.896                   0.897195       -61.25189
1.9                    0.8954128       -61.65972
1.904                  0.8935882       -62.07218
1.908                  0.8917201       -62.48931
1.912                  0.8898071       -62.91117
1.916                  0.8878482       -63.33779
1.92                   0.8858423       -63.76921
1.924                  0.8837881       -64.20548
1.928                  0.8816846       -64.64664
1.932                  0.8795306       -65.09275
1.936                   0.877325       -65.54382
1.94                   0.8750666       -65.99989
1.944                  0.8727546       -66.46103
1.948                  0.8703874       -66.92727
1.952                  0.8679641       -67.39865
1.956                  0.8654841       -67.87518
1.96                   0.8629457       -68.35694
1.964                  0.8603483       -68.84394
1.968                  0.8576906       -69.33624
1.972                  0.8549719       -69.83386
1.976                   0.852191       -70.33683
1.98                   0.8493472       -70.84522
1.984                  0.8464393       -71.35904
1.988                  0.8434667       -71.87834
1.992                  0.8404283       -72.40316
1.996                  0.8373234       -72.93353
2                      0.8341511       -73.46951
2.004                  0.8309109       -74.01112
2.008                  0.8276019       -74.55838
2.012                  0.8242232       -75.11138
2.016                  0.8207744       -75.67014
2.02                   0.8172548        -76.2347
2.024                  0.8136638        -76.8051
2.028                  0.8100009       -77.38141
2.032                  0.8062655       -77.96363
2.036                  0.8024572       -78.55183
2.04                   0.7985755       -79.14608
2.044                  0.7946201        -79.7464
2.048                  0.7905908       -80.35284
2.052                  0.7864869       -80.96548
2.056                  0.7823085       -81.58438
2.06                   0.7780553       -82.20956
2.064                  0.7737271       -82.84111
2.068                  0.7693239       -83.47907
2.072                  0.7648455       -84.12353
2.076                  0.7602921       -84.77454
2.08                   0.7556635       -85.43218
2.084                  0.7509601       -86.09652
2.088                  0.7461818       -86.76765
2.092                   0.741329       -87.44564
2.096                  0.7364018       -88.13055
2.1                    0.7314007       -88.82252
2.104                  0.7263258        -89.5216
2.108                  0.7211779       -90.22793
2.112                  0.7159572       -90.94157
2.116                  0.7106644       -91.66265
2.12                   0.7053001       -92.39127
2.124                  0.6998649       -93.12756
2.128                  0.6943595       -93.87164
2.132                  0.6887851       -94.62365
2.136                  0.6831421        -95.3837
2.14                   0.6774315       -96.15196
2.144                  0.6716544       -96.92856
2.148                  0.6658119       -97.71368
2.152                   0.659905       -98.50748
2.156                   0.653935       -99.31013
2.16                   0.6479031       -100.1218
2.164                  0.6418107       -100.9427
2.168                  0.6356592       -101.7731
2.172                  0.6294499       -102.6131
2.176                  0.6231845       -103.4629
2.18                   0.6168648       -104.3229
2.184                  0.6104922       -105.1932
2.188                  0.6040686       -106.0742
2.192                  0.5975959        -106.966
2.196                  0.5910759        -107.869
2.2                    0.5845109       -108.7835
2.204                  0.5779028       -109.7098
2.208                   0.571254       -110.6482
2.212                  0.5645663       -111.5991
2.216                  0.5578428       -112.5628
2.22                   0.5510854       -113.5398
2.224                  0.5442969       -114.5304
2.228                  0.5374801       -115.5351
2.232                  0.5306375       -116.5544
2.236                  0.5237721       -117.5886
2.24                    0.516887       -118.6383
2.244                  0.5099851       -119.7039
2.248                  0.5030699       -120.7862
2.252                  0.4961446       -121.8855
2.256                  0.4892126       -123.0025
2.26                   0.4822776       -124.1379
2.264                  0.4753433       -125.2922
2.268                  0.4684137       -126.4661
2.272                  0.4614927       -127.6605
2.276                  0.4545845       -128.8759
2.28                   0.4476935       -130.1131
2.284                  0.4408243        -131.373
2.288                  0.4339814       -132.6564
2.292                  0.4271698       -133.9642
2.296                  0.4203943       -135.2971
2.3                    0.4136606       -136.6562
2.304                  0.4069737       -138.0424
2.308                  0.4003394       -139.4566
2.312                  0.3937636       -140.8999
2.316                  0.3872524       -142.3732
2.32                    0.380812       -143.8776
2.324                   0.374449        -145.414
2.328                  0.3681701       -146.9835
2.332                  0.3619824       -148.5872
2.336                   0.355893        -150.226
2.34                   0.3499095       -151.9009
2.344                  0.3440394       -153.6129
2.348                  0.3382908       -155.3628
2.352                  0.3326717       -157.1516