! TOUCHSTONE file generated by CST MICROWAVE STUDIO
! Date and time: Sat May 14 11:21:36 2022
! Project name: AppElm_antenne_dipole_Alumina.cst
! Parameters = {L=33; e=0.035; f=2.45e+09; h=1.6; i=0.8; l1=2; lambda=122.449; ls=30; wl=1.7; ws=68}
! Header version: 2018
! Port assignment regex: !\s*Touchstone port\s*([0-9]+)\s*=\s*(CST MWS port|CST DS port)\s*([0-9]+|Zmin|Zmax)\s*\(\"(.*)\"\)(\s*mode\s*([0-9]+))?.*
! Touchstone port assignment:
! Touchstone port 1 = CST MWS port 1 ("")
# GHz S MA R 50
0                              1              -0
0.004                  0.9999984     -0.06996136
0.008                  0.9999937      -0.1399146
0.012                  0.9999861      -0.2098515
0.016                  0.9999756      -0.2797642
0.02                   0.9999619      -0.3496446
0.024                  0.9999453      -0.4194847
0.028                  0.9999257      -0.4892769
0.032                  0.9999034      -0.5590133
0.036                  0.9998783      -0.6286865
0.04                   0.9998503      -0.6982892
0.044                  0.9998197      -0.7678143
0.048                  0.9997864      -0.8372548
0.052                  0.9997508      -0.9066038
0.056                  0.9997127      -0.9758553
0.06                   0.9996721       -1.045003
0.064                  0.9996294        -1.11404
0.068                  0.9995846       -1.182963
0.072                  0.9995379       -1.251765
0.076                  0.9994892       -1.320441
0.08                   0.9994389       -1.388987
0.084                  0.9993868       -1.457399
0.088                  0.9993334       -1.525673
0.092                  0.9992785       -1.593806
0.096                  0.9992225       -1.661794
0.1                    0.9991653       -1.729635
0.104                  0.9991074       -1.797327
0.108                  0.9990486       -1.864868
0.112                  0.9989893       -1.932257
0.116                  0.9989294       -1.999492
0.12                   0.9988692       -2.066574
0.124                  0.9988089       -2.133503
0.128                  0.9987487       -2.200278
0.132                  0.9986885       -2.266901
0.136                  0.9986288       -2.333374
0.14                   0.9985695       -2.399698
0.144                  0.9985107       -2.465876
0.148                  0.9984527       -2.531909
0.152                  0.9983959       -2.597802
0.156                  0.9983399       -2.663558
0.16                   0.9982853       -2.729182
0.164                  0.9982319       -2.794677
0.168                  0.9981801       -2.860048
0.172                    0.99813       -2.925302
0.176                  0.9980816       -2.990443
0.18                   0.9980351       -3.055478
0.184                  0.9979907       -3.120413
0.188                  0.9979482       -3.185256
0.192                  0.9979082       -3.250012
0.196                  0.9978704       -3.314689
0.2                    0.9978352       -3.379297
0.204                  0.9978025       -3.443841
0.208                  0.9977724       -3.508332
0.212                   0.997745       -3.572777
0.216                  0.9977204       -3.637185
0.22                   0.9976986       -3.701566
0.224                  0.9976798       -3.765929
0.228                  0.9976639       -3.830282
0.232                  0.9976511       -3.894636
0.236                  0.9976412       -3.959001
0.24                   0.9976344       -4.023385
0.244                  0.9976307       -4.087799
0.248                  0.9976302       -4.152252
0.252                  0.9976328       -4.216756
0.256                  0.9976383        -4.28132
0.26                   0.9976471       -4.345952
0.264                  0.9976589       -4.410664
0.268                  0.9976737       -4.475465
0.272                  0.9976915       -4.540367
0.276                  0.9977121       -4.605377
0.28                   0.9977358       -4.670503
0.284                  0.9977623       -4.735759
0.288                  0.9977915       -4.801151
0.292                  0.9978235       -4.866689
0.296                  0.9978581       -4.932381
0.3                    0.9978952       -4.998237
0.304                  0.9979347       -5.064263
0.308                  0.9979767       -5.130469
0.312                  0.9980208       -5.196862
0.316                   0.998067       -5.263449
0.32                   0.9981153       -5.330237
0.324                  0.9981653       -5.397234
0.328                  0.9982171       -5.464444
0.332                  0.9982706       -5.531874
0.336                  0.9983254        -5.59953
0.34                   0.9983816       -5.667418
0.344                  0.9984388       -5.735541
0.348                  0.9984972       -5.803903
0.352                  0.9985565        -5.87251
0.356                  0.9986164       -5.941363
0.36                    0.998677       -6.010467
0.364                  0.9987378       -6.079823
0.368                  0.9987988       -6.149434
0.372                    0.99886       -6.219301
0.376                   0.998921       -6.289425
0.38                   0.9989819       -6.359808
0.384                  0.9990423       -6.430448
0.388                   0.999102       -6.501347
0.392                   0.999161       -6.572503
0.396                  0.9992192       -6.643914
0.4                    0.9992763       -6.715579
0.404                  0.9993322       -6.787497
0.408                  0.9993866       -6.859664
0.412                  0.9994396       -6.932078
0.416                  0.9994909       -7.004735
0.42                   0.9995404       -7.077631
0.424                  0.9995878       -7.150763
0.428                  0.9996333       -7.224125
0.432                  0.9996766       -7.297713
0.436                  0.9997176        -7.37152
0.44                    0.999756       -7.445543
0.444                  0.9997918       -7.519774
0.448                  0.9998252       -7.594207
0.452                  0.9998558       -7.668835
0.456                  0.9998831       -7.743653
0.46                   0.9999079       -7.818651
0.464                  0.9999295       -7.893825
0.468                  0.9999481       -7.969164
0.472                  0.9999636       -8.044662
0.476                  0.9999758       -8.120311
0.48                   0.9999847       -8.196102
0.484                  0.9999905       -8.272027
0.488                  0.9999926       -8.348082
0.492                  0.9999917       -8.424251
0.496                  0.9999873        -8.50053
0.5                    0.9999796        -8.57691
0.504                  0.9999685       -8.653382
0.508                  0.9999542       -8.729938
0.512                  0.9999364       -8.806569
0.516                  0.9999153       -8.883267
0.52                   0.9998909       -8.960025
0.524                  0.9998632       -9.036833
0.528                  0.9998325       -9.113683
0.532                  0.9997987       -9.190567
0.536                  0.9997619       -9.267479
0.54                   0.9997219       -9.344409
0.544                  0.9996792       -9.421352
0.548                  0.9996336       -9.498301
0.552                  0.9995854       -9.575247
0.556                  0.9995347       -9.652185
0.56                   0.9994813        -9.72911
0.564                  0.9994256       -9.806015
0.568                  0.9993677       -9.882894
0.572                  0.9993077       -9.959743
0.576                  0.9992458       -10.03656
0.58                    0.999182       -10.11333
0.584                  0.9991165       -10.19006
0.588                  0.9990497       -10.26675
0.592                  0.9989813       -10.34338
0.596                  0.9989117       -10.41996
0.6                    0.9988411       -10.49649
0.604                  0.9987696       -10.57297
0.608                  0.9986974       -10.64938
0.612                  0.9986247       -10.72574
0.616                  0.9985516       -10.80204
0.62                   0.9984783       -10.87829
0.624                   0.998405       -10.95447
0.628                  0.9983316       -11.03061
0.632                  0.9982588       -11.10669
0.636                  0.9981863       -11.18272
0.64                   0.9981145       -11.25871
0.644                  0.9980435       -11.33465
0.648                  0.9979736       -11.41055
0.652                  0.9979048       -11.48642
0.656                  0.9978374       -11.56225
0.66                   0.9977714       -11.63807
0.664                  0.9977071       -11.71386
0.668                  0.9976446       -11.78964
0.672                   0.997584       -11.86542
0.676                  0.9975254       -11.94121
0.68                   0.9974691         -12.017
0.684                  0.9974152       -12.09281
0.688                  0.9973637       -12.16865
0.692                  0.9973149       -12.24453
0.696                  0.9972687       -12.32045
0.7                    0.9972254       -12.39643
0.704                  0.9971849       -12.47248
0.708                  0.9971475       -12.54861
0.712                  0.9971131       -12.62482
0.716                  0.9970821       -12.70113
0.72                    0.997054       -12.77755
0.724                  0.9970293       -12.85409
0.728                  0.9970079       -12.93077
0.732                    0.99699       -13.00759
0.736                  0.9969754       -13.08457
0.74                   0.9969642       -13.16172
0.744                  0.9969564       -13.23905
0.748                  0.9969521       -13.31658
0.752                  0.9969513       -13.39431
0.756                  0.9969538       -13.47226
0.76                   0.9969598       -13.55045
0.764                   0.996969       -13.62887
0.768                  0.9969816       -13.70755
0.772                  0.9969973        -13.7865
0.776                  0.9970165       -13.86573
0.78                   0.9970385       -13.94525
0.784                  0.9970637       -14.02507
0.788                  0.9970918       -14.10521
0.792                  0.9971227       -14.18568
0.796                  0.9971564       -14.26648
0.8                    0.9971927       -14.34763
0.804                  0.9972313       -14.42914
0.808                  0.9972725       -14.51101
0.812                  0.9973159       -14.59327
0.816                  0.9973612        -14.6759
0.82                   0.9974086       -14.75894
0.824                  0.9974577       -14.84238
0.828                  0.9975084       -14.92623
0.832                  0.9975606       -15.01051
0.836                  0.9976139       -15.09521
0.84                   0.9976683       -15.18034
0.844                  0.9977237       -15.26591
0.848                  0.9977797       -15.35193
0.852                  0.9978362        -15.4384
0.856                  0.9978931       -15.52533
0.86                     0.99795       -15.61272
0.864                  0.9980069       -15.70057
0.868                  0.9980635       -15.78889
0.872                  0.9981196       -15.87767
0.876                  0.9981749       -15.96693
0.88                   0.9982292       -16.05665
0.884                  0.9982826       -16.14686
0.888                  0.9983347       -16.23753
0.892                  0.9983852       -16.32868
0.896                   0.998434        -16.4203
0.9                     0.998481       -16.51239
0.904                  0.9985257       -16.60495
0.908                  0.9985682       -16.69797
0.912                  0.9986083       -16.79146
0.916                  0.9986456       -16.88541
0.92                   0.9986801       -16.97982
0.924                  0.9987117       -17.07467
0.928                    0.99874       -17.16998
0.932                   0.998765       -17.26572
0.936                  0.9987866       -17.36191
0.94                   0.9988044       -17.45852
0.944                  0.9988186       -17.55555
0.948                  0.9988287         -17.653
0.952                  0.9988349       -17.75086
0.956                   0.998837       -17.84912
0.96                   0.9988347       -17.94778
0.964                  0.9988281       -18.04682
0.968                  0.9988171       -18.14624
0.972                  0.9988015       -18.24602
0.976                  0.9987814       -18.34617
0.98                   0.9987565       -18.44667
0.984                  0.9987271        -18.5475
0.988                  0.9986928       -18.64867
0.992                  0.9986539       -18.75017
0.996                  0.9986101       -18.85197
1                      0.9985616       -18.95409
1.004                  0.9985083        -19.0565
1.008                    0.99845       -19.15919
1.012                  0.9983872       -19.26216
1.016                  0.9983196       -19.36538
1.02                   0.9982473        -19.4689
1.024                  0.9981704       -19.57263
1.028                  0.9980889       -19.67664
1.032                   0.998003       -19.78084
1.036                  0.9979127       -19.88532
1.04                    0.997818       -19.98996
1.044                  0.9977191       -20.09484
1.048                  0.9976163       -20.19992
1.052                  0.9975094       -20.30518
1.056                  0.9973988       -20.41064
1.06                   0.9972844       -20.51629
1.064                  0.9971665       -20.62211
1.068                  0.9970454       -20.72811
1.072                  0.9969208       -20.83425
1.076                  0.9967934       -20.94058
1.08                   0.9966631       -21.04708
1.084                  0.9965301       -21.15371
1.088                  0.9963946       -21.26054
1.092                  0.9962568        -21.3675
1.096                  0.9961169       -21.47457
1.1                    0.9959751       -21.58186
1.104                  0.9958318       -21.68928
1.108                  0.9956869       -21.79685
1.112                  0.9955409       -21.90457
1.116                  0.9953937       -22.01246
1.12                   0.9952457       -22.12049
1.124                  0.9950971        -22.2287
1.128                  0.9949482       -22.33708
1.132                   0.994799       -22.44563
1.136                    0.99465       -22.55437
1.14                   0.9945013       -22.66329
1.144                   0.994353       -22.77241
1.148                  0.9942055       -22.88172
1.152                  0.9940588       -22.99126
1.156                  0.9939133       -23.10101
1.16                    0.993769       -23.21099
1.164                  0.9936262       -23.32122
1.168                  0.9934852        -23.4317
1.172                  0.9933461       -23.54245
1.176                  0.9932089       -23.65348
1.18                   0.9930741        -23.7648
1.184                  0.9929415       -23.87644
1.188                  0.9928115       -23.98839
1.192                  0.9926841       -24.10068
1.196                  0.9925597       -24.21333
1.2                     0.992438       -24.32635
1.204                  0.9923195       -24.43975
1.208                  0.9922039       -24.55357
1.212                  0.9920918        -24.6678
1.216                  0.9919829       -24.78248
1.22                   0.9918773       -24.89762
1.224                  0.9917752       -25.01324
1.228                  0.9916765       -25.12936
1.232                  0.9915814         -25.246
1.236                  0.9914899       -25.36318
1.24                   0.9914018       -25.48092
1.244                  0.9913172       -25.59924
1.248                  0.9912361       -25.71816
1.252                  0.9911584       -25.83771
1.256                  0.9910842        -25.9579
1.26                   0.9910133       -26.07875
1.264                  0.9909457       -26.20029
1.268                  0.9908812       -26.32253
1.272                  0.9908197        -26.4455
1.276                  0.9907612       -26.56922
1.28                   0.9907054       -26.69371
1.284                  0.9906525       -26.81899
1.288                   0.990602       -26.94507
1.292                  0.9905538       -27.07199
1.296                  0.9905077       -27.19975
1.3                    0.9904636       -27.32838
1.304                  0.9904211        -27.4579
1.308                  0.9903803       -27.58832
1.312                  0.9903407       -27.71967
1.316                  0.9903021       -27.85195
1.32                   0.9902643        -27.9852
1.324                   0.990227       -28.11942
1.328                    0.99019       -28.25463
1.332                  0.9901529       -28.39085
1.336                  0.9901154        -28.5281
1.34                   0.9900774       -28.66637
1.344                  0.9900384        -28.8057
1.348                  0.9899982       -28.94609
1.352                  0.9899564       -29.08756
1.356                  0.9899128       -29.23011
1.36                   0.9898668       -29.37376
1.364                  0.9898182       -29.51852
1.368                   0.989767        -29.6644
1.372                  0.9897123        -29.8114
1.376                  0.9896541       -29.95954
1.38                    0.989592       -30.10883
1.384                  0.9895255       -30.25926
1.388                  0.9894545       -30.41085
1.392                  0.9893785        -30.5636
1.396                  0.9892973       -30.71752
1.4                    0.9892104        -30.8726
1.404                  0.9891175       -31.02886
1.408                  0.9890181        -31.1863
1.412                  0.9889124        -31.3449
1.416                  0.9887996       -31.50468
1.42                   0.9886794       -31.66564
1.424                  0.9885516       -31.82779
1.428                   0.988416       -31.99111
1.432                  0.9882722        -32.1556
1.436                  0.9881198       -32.32126
1.44                   0.9879587       -32.48811
1.444                  0.9877886        -32.6561
1.448                  0.9876091       -32.82527
1.452                  0.9874199       -32.99561
1.456                  0.9872211       -33.16709
1.46                   0.9870121       -33.33973
1.464                  0.9867929       -33.51351
1.468                  0.9865633       -33.68844
1.472                  0.9863229        -33.8645
1.476                  0.9860717       -34.04169
1.48                   0.9858095       -34.21999
1.484                  0.9855362       -34.39942
1.488                  0.9852515       -34.57996
1.492                  0.9849554        -34.7616
1.496                  0.9846478       -34.94435
1.5                    0.9843285       -35.12817
1.504                  0.9839975       -35.31309
1.508                  0.9836547       -35.49908
1.512                  0.9833001       -35.68615
1.516                  0.9829336       -35.87428
1.52                   0.9825553       -36.06347
1.524                  0.9821648       -36.25373
1.528                  0.9817626       -36.44502
1.532                  0.9813483       -36.63737
1.536                  0.9809224       -36.83076
1.54                   0.9804846        -37.0252
1.544                  0.9800351       -37.22066
1.548                  0.9795738       -37.41717
1.552                  0.9791009        -37.6147
1.556                  0.9786166       -37.81327
1.56                   0.9781209       -38.01287
1.564                  0.9776139        -38.2135
1.568                  0.9770957       -38.41517
1.572                  0.9765666       -38.61787
1.576                  0.9760267       -38.82162
1.58                   0.9754761       -39.02641
1.584                   0.974915       -39.23225
1.588                  0.9743435       -39.43915
1.592                   0.973762       -39.64712
1.596                  0.9731704       -39.85615
1.6                    0.9725691       -40.06628
1.604                  0.9719582        -40.2775
1.608                   0.971338       -40.48982
1.612                  0.9707087       -40.70327
1.616                  0.9700704       -40.91785
1.62                   0.9694234       -41.13359
1.624                  0.9687678        -41.3505
1.628                  0.9681039       -41.56861
1.632                  0.9674321       -41.78791
1.636                  0.9667522       -42.00846
1.64                   0.9660645       -42.23027
1.644                  0.9653695       -42.45335
1.648                   0.964667       -42.67775
1.652                  0.9639574       -42.90347
1.656                  0.9632407       -43.13057
1.66                   0.9625172       -43.35907
1.664                  0.9617872       -43.58899
1.668                  0.9610505       -43.82038
1.672                  0.9603074       -44.05327
1.676                  0.9595579       -44.28769
1.68                   0.9588023       -44.52369
1.684                  0.9580404        -44.7613
1.688                  0.9572726       -45.00056
1.692                  0.9564987       -45.24152
1.696                  0.9557188       -45.48422
1.7                    0.9549328       -45.72871
1.704                  0.9541408       -45.97503
1.708                  0.9533428       -46.22324
1.712                  0.9525385       -46.47337
1.716                  0.9517281       -46.72548
1.72                   0.9509114       -46.97962
1.724                   0.950088       -47.23585
1.728                  0.9492583       -47.49421
1.732                  0.9484215       -47.75476
1.736                  0.9475778       -48.01756
1.74                   0.9467268       -48.28267
1.744                  0.9458682       -48.55014
1.748                  0.9450018       -48.82001
1.752                  0.9441273       -49.09237
1.756                  0.9432442       -49.36728
1.76                   0.9423521       -49.64477
1.764                  0.9414506       -49.92493
1.768                  0.9405394       -50.20781
1.772                   0.939618       -50.49347
1.776                  0.9386857       -50.78197
1.78                   0.9377421       -51.07338
1.784                  0.9367866       -51.36777
1.788                  0.9358185       -51.66519
1.792                  0.9348373        -51.9657
1.796                  0.9338423       -52.26935
1.8                    0.9328328       -52.57625
1.804                  0.9318081       -52.88643
1.808                  0.9307673       -53.19996
1.812                  0.9297099        -53.5169
1.816                  0.9286348       -53.83733
1.82                   0.9275413       -54.16129
1.824                  0.9264286       -54.48885
1.828                  0.9252956       -54.82008
1.832                  0.9241416       -55.15503
1.836                  0.9229656       -55.49377
1.84                   0.9217665       -55.83635
1.844                  0.9205435       -56.18285
1.848                  0.9192955       -56.53332
1.852                  0.9180214        -56.8878
1.856                  0.9167202       -57.24639
1.86                    0.915391        -57.6091
1.864                  0.9140323       -57.97605
1.868                  0.9126434       -58.34722
1.872                  0.9112231       -58.72272
1.876                    0.90977       -59.10259
1.88                   0.9082833       -59.48688
1.884                  0.9067617       -59.87564
1.888                  0.9052039       -60.26894
1.892                  0.9036089       -60.66683
1.896                  0.9019754       -61.06934
1.9                    0.9003023       -61.47655
1.904                  0.8985883       -61.88848
1.908                  0.8968323       -62.30519
1.912                  0.8950329       -62.72674
1.916                  0.8931891       -63.15317
1.92                   0.8912997       -63.58452
1.924                  0.8893634       -64.02085
1.928                   0.887379       -64.46217
1.932                  0.8853454       -64.90858
1.936                  0.8832614       -65.36008
1.94                   0.8811257       -65.81674
1.944                  0.8789373       -66.27858
1.948                   0.876695       -66.74566
1.952                  0.8743975         -67.218
1.956                  0.8720439       -67.69568
1.96                   0.8696331       -68.17871
1.964                  0.8671638       -68.66713
1.968                  0.8646351         -69.161
1.972                  0.8620459       -69.66034
1.976                  0.8593951       -70.16522
1.98                   0.8566818       -70.67564
1.984                  0.8539049       -71.19167
1.988                  0.8510637       -71.71333
1.992                   0.848157       -72.24069
1.996                   0.845184       -72.77377
2                       0.842144       -73.31261
2.004                  0.8390359       -73.85725
2.008                   0.835859       -74.40775
2.012                  0.8326126       -74.96412
2.016                  0.8292959       -75.52644
2.02                   0.8259083       -76.09474
2.024                   0.822449       -76.66905
2.028                  0.8189175       -77.24942
2.032                  0.8153132       -77.83593
2.036                  0.8116356        -78.4286
2.04                   0.8078842       -79.02748
2.044                  0.8040584       -79.63263
2.048                  0.8001581       -80.24409
2.052                  0.7961827       -80.86192
2.056                   0.792132        -81.4862
2.06                   0.7880057       -82.11697
2.064                  0.7838038       -82.75427
2.068                  0.7795258        -83.3982
2.072                  0.7751719       -84.04881
2.076                  0.7707418       -84.70616
2.08                   0.7662357       -85.37034
2.084                  0.7616536       -86.04141
2.088                  0.7569956       -86.71948
2.092                  0.7522618       -87.40457
2.096                  0.7474525       -88.09683
2.1                     0.742568       -88.79629
2.104                  0.7376086       -89.50311
2.108                  0.7325747       -90.21733
2.112                  0.7274668       -90.93909
2.116                  0.7222855       -91.66846
2.12                   0.7170311       -92.40558
2.124                  0.7117047       -93.15057
2.128                  0.7063066       -93.90354
2.132                  0.7008378       -94.66463
2.136                  0.6952991       -95.43398
2.14                   0.6896914       -96.21171
2.144                  0.6840156       -96.99799
2.148                  0.6782729       -97.79296
2.152                  0.6724644        -98.5968
2.156                  0.6665913        -99.4097
2.16                   0.6606548       -100.2318
2.164                  0.6546562       -101.0633
2.168                   0.648597       -101.9044
2.172                  0.6424786       -102.7554
2.176                  0.6363027       -103.6164
2.18                   0.6300709       -104.4876
2.184                  0.6237848       -105.3694
2.188                  0.6174464       -106.2619
2.192                  0.6110575       -107.1655
2.196                  0.6046199       -108.0804
2.2                     0.598136        -109.007
2.204                  0.5916078       -109.9454
2.208                  0.5850374       -110.8961
2.212                  0.5784273       -111.8594
2.216                  0.5717799       -112.8356
2.22                   0.5650977       -113.8251
2.224                  0.5583833       -114.8283
2.228                  0.5516394       -115.8456
2.232                   0.544869       -116.8775
2.236                   0.538075       -117.9244
2.24                   0.5312603       -118.9868
2.244                  0.5244282       -120.0651
2.248                  0.5175821       -121.1598
2.252                  0.5107252       -122.2716
2.256                  0.5038611        -123.401
2.26                   0.4969936       -124.5485
2.264                  0.4901264       -125.7147
2.268                  0.4832635       -126.9003
2.272                  0.4764091        -128.106
2.276                  0.4695672       -129.3324
2.28                   0.4627425       -130.5803
2.284                  0.4559394       -131.8503
2.288                  0.4491628       -133.1433
2.292                  0.4424175         -134.46
2.296                  0.4357085       -135.8012
2.3                    0.4290413       -137.1678
2.304                  0.4224212       -138.5606
2.308                  0.4158541       -139.9804
2.312                  0.4093456       -141.4282
2.316                  0.4029019       -142.9048
2.32                   0.3965294       -144.4111
2.324                  0.3902344       -145.9481
2.328                  0.3840237       -147.5165
2.332                  0.3779042       -149.1174
2.336                   0.371883       -150.7514
2.34                   0.3659675       -152.4196
2.344                  0.3601652       -154.1225
2.348                  0.3544837        -155.861
2.352                  0.3489311       -157.6358