! TOUCHSTONE file generated by CST MICROWAVE STUDIO
! Date and time: Sat May 14 11:21:44 2022
! Project name: AppElm_antenne_dipole_Alumina.cst
! Parameters = {L=33; e=0.035; f=2.45e+09; h=1.6; i=0.8; l1=2; lambda=122.449; ls=30; wl=1.7; ws=96}
! Header version: 2018
! Port assignment regex: !\s*Touchstone port\s*([0-9]+)\s*=\s*(CST MWS port|CST DS port)\s*([0-9]+|Zmin|Zmax)\s*\(\"(.*)\"\)(\s*mode\s*([0-9]+))?.*
! Touchstone port assignment:
! Touchstone port 1 = CST MWS port 1 ("")
# GHz S MA R 50
0                              1              -0
0.004                  0.9999986     -0.06946879
0.008                  0.9999947      -0.1389308
0.012                  0.9999883      -0.2083794
0.016                  0.9999793      -0.2778076
0.02                   0.9999679       -0.347209
0.024                  0.9999539       -0.416577
0.028                  0.9999375       -0.485905
0.032                  0.9999184      -0.5551868
0.036                  0.9998973       -0.624416
0.04                   0.9998738      -0.6935865
0.044                  0.9998478      -0.7626925
0.048                  0.9998199      -0.8317283
0.052                  0.9997897      -0.9006882
0.056                  0.9997576       -0.969567
0.06                   0.9997235       -1.038359
0.064                  0.9996876       -1.107061
0.068                  0.9996499       -1.175667
0.072                  0.9996105       -1.244173
0.076                  0.9995694       -1.312575
0.08                   0.9995271       -1.380869
0.084                  0.9994833       -1.449053
0.088                   0.999438       -1.517122
0.092                   0.999392       -1.585074
0.096                  0.9993448       -1.652907
0.1                    0.9992967       -1.720619
0.104                  0.9992479       -1.788208
0.108                  0.9991984       -1.855673
0.112                  0.9991485       -1.923012
0.116                  0.9990981       -1.990226
0.12                   0.9990475       -2.057313
0.124                  0.9989969       -2.124275
0.128                  0.9989463       -2.191112
0.132                  0.9988958       -2.257824
0.136                  0.9988455       -2.324414
0.14                   0.9987958       -2.390883
0.144                  0.9987464       -2.457232
0.148                  0.9986979       -2.523465
0.152                  0.9986501       -2.589585
0.156                  0.9986032       -2.655594
0.16                   0.9985574       -2.721497
0.164                  0.9985128       -2.787297
0.168                  0.9984695       -2.852998
0.172                  0.9984274       -2.918606
0.176                   0.998387       -2.984125
0.18                   0.9983482       -3.049561
0.184                  0.9983111       -3.114919
0.188                  0.9982758       -3.180205
0.192                  0.9982423       -3.245426
0.196                   0.998211       -3.310588
0.2                    0.9981817       -3.375698
0.204                  0.9981545       -3.440762
0.208                  0.9981296       -3.505788
0.212                   0.998107       -3.570784
0.216                  0.9980867       -3.635756
0.22                   0.9980689       -3.700714
0.224                  0.9980535       -3.765665
0.228                  0.9980405       -3.830616
0.232                  0.9980301       -3.895577
0.236                  0.9980223       -3.960555
0.24                   0.9980171       -4.025559
0.244                  0.9980146       -4.090597
0.248                  0.9980145       -4.155678
0.252                  0.9980171       -4.220811
0.256                  0.9980223       -4.286004
0.26                   0.9980301       -4.351266
0.264                  0.9980405       -4.416604
0.268                  0.9980534       -4.482027
0.272                  0.9980688       -4.547545
0.276                  0.9980868       -4.613164
0.28                   0.9981071       -4.678894
0.284                  0.9981299       -4.744742
0.288                  0.9981549       -4.810717
0.292                  0.9981822       -4.876824
0.296                  0.9982118       -4.943073
0.3                    0.9982433       -5.009471
0.304                  0.9982768       -5.076024
0.308                  0.9983124       -5.142739
0.312                  0.9983498       -5.209624
0.316                  0.9983889       -5.276683
0.32                   0.9984297       -5.343925
0.324                   0.998472       -5.411352
0.328                  0.9985158       -5.478972
0.332                  0.9985608       -5.546789
0.336                   0.998607       -5.614809
0.34                   0.9986543       -5.683035
0.344                  0.9987025       -5.751471
0.348                  0.9987515       -5.820122
0.352                  0.9988013        -5.88899
0.356                  0.9988515       -5.958078
0.36                   0.9989022        -6.02739
0.364                  0.9989531       -6.096927
0.368                  0.9990043       -6.166689
0.372                  0.9990553        -6.23668
0.376                  0.9991064       -6.306901
0.38                   0.9991569       -6.377351
0.384                  0.9992071       -6.448031
0.388                  0.9992569       -6.518941
0.392                   0.999306       -6.590079
0.396                  0.9993542       -6.661446
0.4                    0.9994014       -6.733039
0.404                  0.9994476       -6.804857
0.408                  0.9994925       -6.876898
0.412                  0.9995361       -6.949159
0.416                  0.9995782       -7.021637
0.42                   0.9996189       -7.094329
0.424                  0.9996577       -7.167232
0.428                  0.9996949       -7.240342
0.432                    0.99973       -7.313654
0.436                  0.9997631       -7.387164
0.44                   0.9997941       -7.460869
0.444                   0.999823        -7.53476
0.448                  0.9998494       -7.608835
0.452                  0.9998736       -7.683087
0.456                  0.9998954       -7.757511
0.46                   0.9999146       -7.832102
0.464                  0.9999311        -7.90685
0.468                   0.999945       -7.981752
0.472                  0.9999564       -8.056802
0.476                  0.9999648       -8.131992
0.48                   0.9999707       -8.207313
0.484                  0.9999736       -8.282764
0.488                  0.9999738       -8.358332
0.492                   0.999971       -8.434014
0.496                  0.9999654       -8.509801
0.5                     0.999957       -8.585687
0.504                  0.9999457       -8.661665
0.508                  0.9999316       -8.737726
0.512                  0.9999146       -8.813866
0.516                   0.999895       -8.890076
0.52                   0.9998725        -8.96635
0.524                  0.9998474       -9.042681
0.528                  0.9998195       -9.119064
0.532                   0.999789        -9.19549
0.536                   0.999756       -9.271955
0.54                   0.9997206       -9.348452
0.544                  0.9996826       -9.424974
0.548                  0.9996423       -9.501518
0.552                  0.9995999       -9.578075
0.556                  0.9995552       -9.654645
0.56                   0.9995084       -9.731218
0.564                  0.9994599       -9.807792
0.568                  0.9994094       -9.884363
0.572                  0.9993571       -9.960925
0.576                  0.9993032       -10.03748
0.58                   0.9992479       -10.11402
0.584                  0.9991912       -10.19053
0.588                  0.9991332       -10.26704
0.592                  0.9990741       -10.34352
0.596                  0.9990142       -10.41997
0.6                    0.9989532        -10.4964
0.604                  0.9988918        -10.5728
0.608                  0.9988296       -10.64918
0.612                   0.998767       -10.72554
0.616                  0.9987043       -10.80186
0.62                   0.9986414       -10.87816
0.624                  0.9985786       -10.95444
0.628                  0.9985159        -11.0307
0.632                  0.9984535       -11.10694
0.636                  0.9983916       -11.18316
0.64                   0.9983303       -11.25936
0.644                  0.9982697       -11.33556
0.648                  0.9982101       -11.41175
0.652                  0.9981514       -11.48793
0.656                   0.998094       -11.56412
0.66                   0.9980378       -11.64032
0.664                  0.9979831       -11.71653
0.668                    0.99793       -11.79275
0.672                  0.9978785       -11.86901
0.676                  0.9978288        -11.9453
0.68                   0.9977809       -12.02162
0.684                  0.9977352         -12.098
0.688                  0.9976915       -12.17443
0.692                    0.99765       -12.25092
0.696                  0.9976108       -12.32748
0.7                    0.9975741       -12.40412
0.704                  0.9975397       -12.48086
0.708                   0.997508       -12.55769
0.712                  0.9974788       -12.63463
0.716                  0.9974523       -12.71169
0.72                   0.9974284       -12.78887
0.724                  0.9974073        -12.8662
0.728                  0.9973891       -12.94367
0.732                  0.9973736        -13.0213
0.736                  0.9973609        -13.0991
0.74                   0.9973511       -13.17708
0.744                  0.9973442       -13.25525
0.748                  0.9973401       -13.33362
0.752                  0.9973388        -13.4122
0.756                  0.9973403       -13.49101
0.76                   0.9973446       -13.57005
0.764                  0.9973516       -13.64933
0.768                  0.9973615       -13.72887
0.772                  0.9973738       -13.80867
0.776                  0.9973887       -13.88874
0.78                   0.9974061       -13.96911
0.784                  0.9974262       -14.04976
0.788                  0.9974484       -14.13072
0.792                  0.9974729         -14.212
0.796                  0.9974997        -14.2936
0.8                    0.9975284       -14.37554
0.804                  0.9975592       -14.45781
0.808                  0.9975917       -14.54044
0.812                   0.997626       -14.62343
0.816                  0.9976619       -14.70678
0.82                   0.9976991       -14.79051
0.824                  0.9977378       -14.87461
0.828                  0.9977775       -14.95911
0.832                  0.9978183         -15.044
0.836                    0.99786       -15.12929
0.84                   0.9979025         -15.215
0.844                  0.9979453       -15.30111
0.848                  0.9979887       -15.38763
0.852                  0.9980321       -15.47458
0.856                  0.9980757       -15.56196
0.86                   0.9981191       -15.64976
0.864                  0.9981623         -15.738
0.868                  0.9982049       -15.82666
0.872                   0.998247       -15.91577
0.876                  0.9982882       -16.00531
0.88                   0.9983284       -16.09529
0.884                  0.9983675       -16.18571
0.888                  0.9984052       -16.27656
0.892                  0.9984414       -16.36787
0.896                  0.9984759        -16.4596
0.9                    0.9985086       -16.55177
0.904                  0.9985392       -16.64438
0.908                  0.9985678       -16.73743
0.912                   0.998594        -16.8309
0.916                  0.9986176       -16.92481
0.92                   0.9986387       -17.01913
0.924                  0.9986571       -17.11388
0.928                  0.9986726       -17.20905
0.932                  0.9986849       -17.30463
0.936                  0.9986942       -17.40062
0.94                   0.9987001       -17.49701
0.944                  0.9987026       -17.59379
0.948                  0.9987017       -17.69097
0.952                  0.9986972       -17.78854
0.956                  0.9986889       -17.88649
0.96                   0.9986769        -17.9848
0.964                   0.998661       -18.08349
0.968                  0.9986412       -18.18253
0.972                  0.9986174       -18.28193
0.976                  0.9985894       -18.38167
0.98                   0.9985575       -18.48175
0.984                  0.9985214       -18.58216
0.988                  0.9984812        -18.6829
0.992                  0.9984367       -18.78395
0.996                  0.9983881        -18.8853
1                      0.9983354       -18.98696
1.004                  0.9982784       -19.08892
1.008                  0.9982173       -19.19116
1.012                  0.9981521       -19.29366
1.016                  0.9980828       -19.39644
1.02                   0.9980094       -19.49952
1.024                  0.9979321       -19.60285
1.028                  0.9978508        -19.7064
1.032                  0.9977655       -19.81021
1.036                  0.9976766       -19.91425
1.04                   0.9975839       -20.01854
1.044                  0.9974876       -20.12304
1.048                  0.9973879       -20.22778
1.052                  0.9972847       -20.33272
1.056                  0.9971783       -20.43791
1.06                   0.9970687       -20.54326
1.064                  0.9969561       -20.64882
1.068                  0.9968405       -20.75461
1.072                  0.9967223       -20.86056
1.076                  0.9966014       -20.96673
1.08                   0.9964782       -21.07312
1.084                  0.9963526       -21.17969
1.088                  0.9962249       -21.28644
1.092                  0.9960953       -21.39337
1.096                  0.9959639        -21.5005
1.1                    0.9958309       -21.60781
1.104                  0.9956964       -21.71537
1.108                  0.9955607        -21.8231
1.112                  0.9954239       -21.93099
1.116                  0.9952863       -22.03912
1.12                   0.9951478       -22.14742
1.124                  0.9950088         -22.256
1.128                  0.9948696       -22.36474
1.132                  0.9947301       -22.47372
1.136                  0.9945907       -22.58292
1.14                   0.9944513       -22.69237
1.144                  0.9943124       -22.80205
1.148                  0.9941741       -22.91199
1.152                  0.9940364       -23.02218
1.156                  0.9938996       -23.13264
1.16                   0.9937637       -23.24339
1.164                  0.9936291       -23.35442
1.168                  0.9934958       -23.46576
1.172                  0.9933639       -23.57741
1.176                  0.9932337       -23.68938
1.18                   0.9931052       -23.80169
1.184                  0.9929785       -23.91435
1.188                  0.9928539       -24.02738
1.192                  0.9927312       -24.14079
1.196                  0.9926107       -24.25459
1.2                    0.9924926       -24.36881
1.204                  0.9923766       -24.48345
1.208                  0.9922633       -24.59853
1.212                  0.9921524       -24.71407
1.216                  0.9920438       -24.83008
1.22                   0.9919379       -24.94659
1.224                  0.9918346       -25.06361
1.228                  0.9917339       -25.18115
1.232                  0.9916359       -25.29924
1.236                  0.9915404       -25.41789
1.24                   0.9914474       -25.53712
1.244                  0.9913571       -25.65696
1.248                  0.9912692       -25.77741
1.252                  0.9911838        -25.8985
1.256                  0.9911009       -26.02024
1.26                   0.9910203       -26.14266
1.264                  0.9909418       -26.26577
1.268                  0.9908656       -26.38959
1.272                  0.9907913       -26.51414
1.276                   0.990719       -26.63944
1.28                   0.9906485        -26.7655
1.284                  0.9905795       -26.89235
1.288                  0.9905119          -27.02
1.292                  0.9904459       -27.14847
1.296                  0.9903808       -27.27778
1.3                    0.9903167       -27.40794
1.304                  0.9902533       -27.53897
1.308                  0.9901905       -27.67088
1.312                   0.990128        -27.8037
1.316                  0.9900655       -27.93743
1.32                    0.990003        -28.0721
1.324                  0.9899399       -28.20772
1.328                  0.9898763       -28.34429
1.332                  0.9898119       -28.48184
1.336                  0.9897462       -28.62038
1.34                    0.989679       -28.75992
1.344                  0.9896101       -28.90048
1.348                  0.9895393       -29.04205
1.352                  0.9894662       -29.18466
1.356                  0.9893905       -29.32832
1.36                    0.989312       -29.47303
1.364                  0.9892303       -29.61881
1.368                  0.9891451       -29.76566
1.372                  0.9890562       -29.91358
1.376                  0.9889632        -30.0626
1.38                   0.9888657       -30.21271
1.384                  0.9887637       -30.36393
1.388                  0.9886567       -30.51624
1.392                  0.9885443       -30.66967
1.396                  0.9884264       -30.82421
1.4                    0.9883025       -30.97989
1.404                  0.9881726       -31.13667
1.408                  0.9880364       -31.29457
1.412                   0.987893       -31.45361
1.416                  0.9877428       -31.61378
1.42                   0.9875853       -31.77508
1.424                  0.9874202        -31.9375
1.428                  0.9872471       -32.10105
1.432                  0.9870661       -32.26573
1.436                  0.9868766       -32.43155
1.44                   0.9866786       -32.59848
1.444                  0.9864718       -32.76653
1.448                  0.9862558       -32.93572
1.452                  0.9860305       -33.10603
1.456                  0.9857958       -33.27745
1.46                   0.9855514       -33.44999
1.464                  0.9852972       -33.62364
1.468                  0.9850328       -33.79839
1.472                  0.9847584       -33.97425
1.476                  0.9844735       -34.15121
1.48                    0.984178       -34.32927
1.484                  0.9838719       -34.50842
1.488                  0.9835552       -34.68866
1.492                  0.9832276       -34.86999
1.496                  0.9828889       -35.05239
1.5                    0.9825392       -35.23588
1.504                  0.9821783       -35.42044
1.508                  0.9818064       -35.60606
1.512                  0.9814231       -35.79276
1.516                  0.9810287       -35.98053
1.52                   0.9806229       -36.16935
1.524                  0.9802059       -36.35924
1.528                  0.9797775       -36.55018
1.532                  0.9793379       -36.74218
1.536                  0.9788869       -36.93524
1.54                   0.9784248       -37.12935
1.544                  0.9779515       -37.32453
1.548                  0.9774671       -37.52075
1.552                  0.9769715       -37.71803
1.556                  0.9764651       -37.91638
1.56                   0.9759476        -38.1158
1.564                  0.9754195       -38.31628
1.568                  0.9748804       -38.51784
1.572                  0.9743309       -38.72046
1.576                  0.9737709       -38.92418
1.58                   0.9732004       -39.12899
1.584                  0.9726196        -39.3349
1.588                  0.9720289       -39.54191
1.592                  0.9714282       -39.75005
1.596                  0.9708175       -39.95932
1.6                    0.9701971       -40.16973
1.604                  0.9695672       -40.38129
1.608                  0.9689277       -40.59403
1.612                  0.9682792       -40.80796
1.616                  0.9676213       -41.02309
1.62                   0.9669545       -41.23945
1.624                  0.9662789       -41.45704
1.628                  0.9655945        -41.6759
1.632                  0.9649014       -41.89605
1.636                     0.9642       -42.11749
1.64                   0.9634904       -42.34027
1.644                  0.9627722       -42.56442
1.648                  0.9620461       -42.78994
1.652                  0.9613119       -43.01688
1.656                  0.9605697       -43.24527
1.66                   0.9598198       -43.47512
1.664                   0.959062       -43.70648
1.668                  0.9582965       -43.93938
1.672                  0.9575232       -44.17386
1.676                  0.9567422       -44.40994
1.68                   0.9559537       -44.64767
1.684                  0.9551573        -44.8871
1.688                  0.9543534       -45.12823
1.692                  0.9535417       -45.37114
1.696                  0.9527222       -45.61585
1.7                    0.9518947       -45.86242
1.704                  0.9510594       -46.11087
1.708                  0.9502159       -46.36127
1.712                  0.9493642       -46.61364
1.716                  0.9485041       -46.86806
1.72                   0.9476353       -47.12455
1.724                  0.9467579       -47.38317
1.728                  0.9458713       -47.64398
1.732                  0.9449756       -47.90701
1.736                  0.9440702       -48.17232
1.74                    0.943155       -48.43996
1.744                  0.9422294       -48.70999
1.748                  0.9412936       -48.98245
1.752                  0.9403466       -49.25742
1.756                  0.9393884       -49.53492
1.76                   0.9384181       -49.81502
1.764                  0.9374358       -50.09779
1.768                  0.9364406       -50.38327
1.772                  0.9354323       -50.67152
1.776                    0.93441       -50.96259
1.78                   0.9333732       -51.25656
1.784                  0.9323216       -51.55345
1.788                  0.9312545       -51.85334
1.792                  0.9301708       -52.15629
1.796                  0.9290703       -52.46235
1.8                    0.9279521       -52.77157
1.804                  0.9268156       -53.08402
1.808                  0.9256598       -53.39974
1.812                  0.9244841        -53.7188
1.816                  0.9232876       -54.04127
1.82                   0.9220696       -54.36718
1.824                  0.9208292       -54.69659
1.828                  0.9195656       -55.02956
1.832                  0.9182777       -55.36615
1.836                  0.9169646       -55.70642
1.84                   0.9156256        -56.0504
1.844                  0.9142595       -56.39816
1.848                  0.9128655       -56.74976
1.852                  0.9114425       -57.10524
1.856                  0.9099896       -57.46466
1.86                   0.9085056       -57.82806
1.864                  0.9069896        -58.1955
1.868                  0.9054407       -58.56703
1.872                  0.9038575        -58.9427
1.876                  0.9022392       -59.32255
1.88                   0.9005845       -59.70664
1.884                  0.8988927       -60.09501
1.888                  0.8971623       -60.48771
1.892                  0.8953924       -60.88478
1.896                  0.8935816       -61.28628
1.9                    0.8917292       -61.69224
1.904                  0.8898341       -62.10271
1.908                  0.8878949       -62.51773
1.912                  0.8859106       -62.93733
1.916                    0.88388        -63.3616
1.92                   0.8818021       -63.79053
1.924                  0.8796759       -64.22417
1.928                  0.8775003       -64.66258
1.932                   0.875274       -65.10578
1.936                  0.8729959       -65.55384
1.94                   0.8706653       -66.00677
1.944                  0.8682808       -66.46461
1.948                  0.8658415       -66.92739
1.952                  0.8633465       -67.39518
1.956                  0.8607944       -67.86799
1.96                   0.8581847       -68.34586
1.964                  0.8555161       -68.82884
1.968                  0.8527877       -69.31696
1.972                  0.8499985       -69.81025
1.976                  0.8471477       -70.30876
1.98                   0.8442344       -70.81251
1.984                  0.8412577       -71.32155
1.988                  0.8382169       -71.83591
1.992                  0.8351109       -72.35563
1.996                  0.8319392       -72.88075
2                      0.8287009       -73.41129
2.004                  0.8253954       -73.94731
2.008                  0.8220217       -74.48885
2.012                  0.8185796       -75.03592
2.016                  0.8150681       -75.58859
2.02                   0.8114868       -76.14692
2.024                  0.8078351        -76.7109
2.028                  0.8041125       -77.28059
2.032                  0.8003186       -77.85605
2.036                  0.7964528       -78.43733
2.04                   0.7925149       -79.02445
2.044                  0.7885043       -79.61749
2.048                  0.7844208       -80.21647
2.052                  0.7802644       -80.82146
2.056                  0.7760344        -81.4325
2.06                   0.7717311       -82.04968
2.064                   0.767354       -82.67303
2.068                  0.7629032       -83.30261
2.072                  0.7583787        -83.9385
2.076                  0.7537804       -84.58073
2.08                   0.7491083       -85.22943
2.084                  0.7443628       -85.88461
2.088                  0.7395438       -86.54639
2.092                  0.7346517       -87.21483
2.096                  0.7296865       -87.89001
2.1                    0.7246489       -88.57202
2.104                  0.7195391       -89.26096
2.108                  0.7143574       -89.95691
2.112                  0.7091045       -90.65998
2.116                  0.7037808       -91.37026
2.12                    0.698387        -92.0879
2.124                  0.6929237       -92.81298
2.128                  0.6873917       -93.54562
2.132                  0.6817917       -94.28596
2.136                  0.6761246       -95.03414
2.14                   0.6703914       -95.79028
2.144                  0.6645928       -96.55456
2.148                    0.65873       -97.32709
2.152                  0.6528041       -98.10808
2.156                  0.6468162       -98.89768
2.16                   0.6407676       -99.69606
2.164                  0.6346596       -100.5034
2.168                  0.6284934         -101.32
2.172                  0.6222706       -102.1459
2.176                  0.6159927       -102.9815
2.18                   0.6096611       -103.8269
2.184                  0.6032777       -104.6824
2.188                  0.5968439       -105.5482
2.192                  0.5903618       -106.4247
2.196                  0.5838331        -107.312
2.2                    0.5772597       -108.2106
2.204                  0.5706439       -109.1207
2.208                  0.5639876       -110.0426
2.212                   0.557293       -110.9768
2.216                  0.5505625       -111.9235
2.22                   0.5437984       -112.8832
2.224                  0.5370032       -113.8562
2.228                  0.5301795       -114.8429
2.232                    0.52333        -115.844
2.236                  0.5164573       -116.8597
2.24                   0.5095645       -117.8906
2.244                  0.5026544       -118.9373
2.248                  0.4957303       -120.0001
2.252                  0.4887952       -121.0798
2.256                  0.4818525        -122.177
2.26                   0.4749059       -123.2922
2.264                  0.4679586       -124.4261
2.268                  0.4610146       -125.5794
2.272                  0.4540778       -126.7529
2.276                  0.4471521       -127.9472
2.28                   0.4402417       -129.1631
2.284                   0.433351       -130.4016
2.288                  0.4264846       -131.6634
2.292                   0.419647       -132.9494
2.296                  0.4128432       -134.2605
2.3                    0.4060783       -135.5978
2.304                  0.3993575       -136.9621
2.308                  0.3926863       -138.3546
2.312                  0.3860703       -139.7761
2.316                  0.3795156       -141.2279
2.32                   0.3730282        -142.711
2.324                  0.3666145       -144.2265
2.328                  0.3602812       -145.7755
2.332                  0.3540351       -147.3592
2.336                  0.3478833       -148.9786
2.34                   0.3418331       -150.6349
2.344                  0.3358922       -152.3292
2.348                  0.3300685       -154.0625
2.352                    0.32437       -155.8357