! TOUCHSTONE file generated by CST MICROWAVE STUDIO
! Date and time: Sat May 14 11:21:34 2022
! Project name: AppElm_antenne_dipole_Alumina.cst
! Parameters = {L=33; e=0.035; f=2.45e+09; h=1.6; i=0.8; l1=2; lambda=122.449; ls=30; wl=1.7; ws=60}
! Header version: 2018
! Port assignment regex: !\s*Touchstone port\s*([0-9]+)\s*=\s*(CST MWS port|CST DS port)\s*([0-9]+|Zmin|Zmax)\s*\(\"(.*)\"\)(\s*mode\s*([0-9]+))?.*
! Touchstone port assignment:
! Touchstone port 1 = CST MWS port 1 ("")
# GHz S MA R 50
0                      0.9999982              -0
0.004                  0.9999965     -0.07018744
0.008                  0.9999916      -0.1403661
0.012                  0.9999834      -0.2105272
0.016                  0.9999721      -0.2806619
0.02                   0.9999572      -0.3507618
0.024                  0.9999394      -0.4208182
0.028                  0.9999183      -0.4908226
0.032                  0.9998941      -0.5607668
0.036                   0.999867      -0.6306426
0.04                   0.9998368      -0.7004422
0.044                  0.9998039      -0.7701576
0.048                   0.999768      -0.8397816
0.052                  0.9997296      -0.9093066
0.056                  0.9996884       -0.978726
0.06                   0.9996449       -1.048033
0.064                  0.9995987       -1.117221
0.068                  0.9995505       -1.186284
0.072                     0.9995       -1.255216
0.076                  0.9994474       -1.324012
0.08                   0.9993931       -1.392668
0.084                  0.9993369       -1.461177
0.088                  0.9992792       -1.529537
0.092                    0.99922       -1.597744
0.096                  0.9991595       -1.665793
0.1                    0.9990979       -1.733683
0.104                  0.9990351       -1.801411
0.108                  0.9989717       -1.868974
0.112                  0.9989074       -1.936373
0.116                  0.9988428       -2.003603
0.12                   0.9987777       -2.070668
0.124                  0.9987124       -2.137565
0.128                  0.9986474       -2.204294
0.132                  0.9985823       -2.270857
0.136                  0.9985175       -2.337256
0.14                   0.9984533       -2.403493
0.144                  0.9983897       -2.469569
0.148                  0.9983269       -2.535487
0.152                  0.9982652       -2.601251
0.156                  0.9982046       -2.666865
0.16                   0.9981451       -2.732333
0.164                  0.9980874       -2.797658
0.168                  0.9980311       -2.862848
0.172                  0.9979766       -2.927907
0.176                  0.9979239       -2.992841
0.18                   0.9978733       -3.057656
0.184                  0.9978248       -3.122361
0.188                  0.9977787       -3.186961
0.192                  0.9977349       -3.251464
0.196                  0.9976937       -3.315879
0.2                    0.9976551       -3.380213
0.204                  0.9976192       -3.444474
0.208                  0.9975861       -3.508673
0.212                   0.997556       -3.572818
0.216                  0.9975288       -3.636918
0.22                   0.9975048       -3.700984
0.224                  0.9974837       -3.765024
0.228                   0.997466       -3.829049
0.232                  0.9974515       -3.893068
0.236                  0.9974401       -3.957095
0.24                   0.9974322       -4.021135
0.244                  0.9974276       -4.085204
0.248                  0.9974263       -4.149307
0.252                  0.9974282        -4.21346
0.256                  0.9974336       -4.277669
0.26                   0.9974424       -4.341948
0.264                  0.9974545       -4.406306
0.268                  0.9974698       -4.470754
0.272                  0.9974883       -4.535302
0.276                  0.9975101       -4.599962
0.28                    0.997535       -4.664741
0.284                  0.9975629       -4.729652
0.288                  0.9975939       -4.794702
0.292                  0.9976278       -4.859904
0.296                  0.9976646       -4.925265
0.3                    0.9977042       -4.990794
0.304                  0.9977463       -5.056503
0.308                  0.9977911       -5.122396
0.312                  0.9978382       -5.188485
0.316                  0.9978878       -5.254776
0.32                   0.9979394       -5.321277
0.324                  0.9979931       -5.387995
0.328                  0.9980487       -5.454937
0.332                   0.998106       -5.522111
0.336                   0.998165        -5.58952
0.34                   0.9982256       -5.657172
0.344                  0.9982873       -5.725071
0.348                  0.9983502       -5.793221
0.352                  0.9984141       -5.861628
0.356                   0.998479       -5.930293
0.36                   0.9985443       -5.999224
0.364                  0.9986101       -6.068419
0.368                  0.9986763       -6.137883
0.372                  0.9987426       -6.207616
0.376                  0.9988089       -6.277621
0.38                   0.9988749       -6.347897
0.384                  0.9989404       -6.418447
0.388                  0.9990056       -6.489267
0.392                  0.9990699        -6.56036
0.396                  0.9991331       -6.631722
0.4                    0.9991956       -6.703351
0.404                  0.9992566       -6.775249
0.408                  0.9993163       -6.847409
0.412                  0.9993744       -6.919829
0.416                  0.9994307       -6.992507
0.42                   0.9994851       -7.065437
0.424                  0.9995376       -7.138616
0.428                  0.9995878       -7.212038
0.432                  0.9996356       -7.285698
0.436                  0.9996811       -7.359592
0.44                    0.999724        -7.43371
0.444                  0.9997641        -7.50805
0.448                  0.9998015       -7.582603
0.452                  0.9998358       -7.657362
0.456                  0.9998672        -7.73232
0.46                   0.9998955       -7.807468
0.464                  0.9999205       -7.882801
0.468                  0.9999421       -7.958308
0.472                  0.9999605       -8.033984
0.476                  0.9999755       -8.109817
0.48                   0.9999869       -8.185798
0.484                  0.9999949       -8.261921
0.488                  0.9999991       -8.338177
0.492                          1       -8.414555
0.496                  0.9999972       -8.491045
0.5                    0.9999907       -8.567639
0.504                  0.9999806        -8.64433
0.508                  0.9999668       -8.721107
0.512                  0.9999496       -8.797959
0.516                  0.9999288       -8.874879
0.52                   0.9999044       -8.951859
0.524                  0.9998765       -9.028888
0.528                  0.9998452       -9.105956
0.532                  0.9998105       -9.183058
0.536                  0.9997725       -9.260183
0.54                   0.9997313       -9.337324
0.544                   0.999687       -9.414472
0.548                  0.9996394       -9.491621
0.552                  0.9995891       -9.568762
0.556                   0.999536       -9.645887
0.56                     0.99948       -9.722991
0.564                  0.9994216       -9.800067
0.568                  0.9993606       -9.877109
0.572                  0.9992973       -9.954111
0.576                  0.9992317       -10.03107
0.58                   0.9991644       -10.10797
0.584                   0.999095       -10.18482
0.588                   0.999024       -10.26162
0.592                  0.9989513       -10.33835
0.596                  0.9988772       -10.41501
0.6                     0.998802       -10.49161
0.604                  0.9987258       -10.56814
0.608                  0.9986486       -10.64459
0.612                  0.9985708       -10.72098
0.616                  0.9984925       -10.79729
0.62                    0.998414       -10.87352
0.624                  0.9983352       -10.94969
0.628                  0.9982565       -11.02579
0.632                   0.998178       -11.10181
0.636                     0.9981       -11.17777
0.64                   0.9980226       -11.25366
0.644                  0.9979461        -11.3295
0.648                  0.9978705       -11.40527
0.652                  0.9977961         -11.481
0.656                   0.997723       -11.55668
0.66                   0.9976515       -11.63231
0.664                  0.9975816       -11.70791
0.668                  0.9975135       -11.78348
0.672                  0.9974476       -11.85903
0.676                  0.9973837       -11.93457
0.68                   0.9973222        -12.0101
0.684                  0.9972632       -12.08563
0.688                  0.9972067       -12.16117
0.692                   0.997153       -12.23674
0.696                  0.9971021       -12.31233
0.7                    0.9970544       -12.38796
0.704                  0.9970095       -12.46365
0.708                  0.9969679        -12.5394
0.712                  0.9969297       -12.61522
0.716                  0.9968948       -12.69113
0.72                   0.9968633       -12.76714
0.724                  0.9968354       -12.84325
0.728                  0.9968111       -12.91949
0.732                  0.9967902       -12.99586
0.736                  0.9967732       -13.07238
0.74                   0.9967599       -13.14906
0.744                  0.9967502       -13.22591
0.748                  0.9967441       -13.30295
0.752                   0.996742       -13.38018
0.756                  0.9967435       -13.45763
0.76                   0.9967487        -13.5353
0.764                  0.9967576       -13.61321
0.768                  0.9967699       -13.69137
0.772                   0.996786        -13.7698
0.776                  0.9968056        -13.8485
0.78                   0.9968285        -13.9275
0.784                  0.9968549       -14.00679
0.788                  0.9968843        -14.0864
0.792                   0.996917       -14.16634
0.796                  0.9969529       -14.24661
0.8                    0.9969916       -14.32724
0.804                  0.9970332       -14.40822
0.808                  0.9970774       -14.48958
0.812                  0.9971241       -14.57133
0.816                  0.9971732       -14.65346
0.82                   0.9972246         -14.736
0.824                  0.9972779       -14.81895
0.828                  0.9973333       -14.90232
0.832                  0.9973902       -14.98612
0.836                  0.9974487       -15.07035
0.84                   0.9975086       -15.15503
0.844                  0.9975695       -15.24016
0.848                  0.9976314       -15.32575
0.852                   0.997694        -15.4118
0.856                  0.9977572       -15.49833
0.86                   0.9978206       -15.58532
0.864                  0.9978843       -15.67279
0.868                  0.9979476       -15.76075
0.872                  0.9980109       -15.84918
0.876                  0.9980734       -15.93811
0.88                   0.9981353       -16.02752
0.884                  0.9981961       -16.11742
0.888                  0.9982558       -16.20781
0.892                   0.998314       -16.29869
0.896                  0.9983706       -16.39006
0.9                    0.9984253       -16.48192
0.904                   0.998478       -16.57426
0.908                  0.9985284       -16.66709
0.912                  0.9985764        -16.7604
0.916                  0.9986217       -16.85419
0.92                   0.9986642       -16.94844
0.924                  0.9987036       -17.04318
0.928                  0.9987399       -17.13837
0.932                  0.9987726       -17.23402
0.936                  0.9988018       -17.33013
0.94                   0.9988274       -17.42668
0.944                  0.9988489       -17.52367
0.948                  0.9988665       -17.62109
0.952                  0.9988798       -17.71894
0.956                  0.9988891        -17.8172
0.96                   0.9988937       -17.91587
0.964                  0.9988937       -18.01494
0.968                  0.9988892       -18.11441
0.972                    0.99888       -18.21425
0.976                  0.9988659       -18.31447
0.98                   0.9988468       -18.41504
0.984                   0.998823       -18.51597
0.988                  0.9987941       -18.61724
0.992                  0.9987599       -18.71885
0.996                  0.9987209       -18.82078
1                      0.9986768       -18.92302
1.004                  0.9986276       -19.02556
1.008                  0.9985734        -19.1284
1.012                  0.9985139       -19.23151
1.016                  0.9984496       -19.33489
1.02                     0.99838       -19.43854
1.024                  0.9983057       -19.54242
1.028                  0.9982263       -19.64659
1.032                  0.9981423       -19.75096
1.036                  0.9980534       -19.85554
1.04                   0.9979598       -19.96037
1.044                  0.9978617       -20.06536
1.048                  0.9977593        -20.1706
1.052                  0.9976526       -20.27601
1.056                  0.9975416        -20.3816
1.06                   0.9974267       -20.48733
1.064                  0.9973079       -20.59326
1.068                  0.9971853       -20.69937
1.072                  0.9970593       -20.80559
1.076                  0.9969298       -20.91201
1.08                   0.9967972       -21.01856
1.084                  0.9966617       -21.12525
1.088                  0.9965233        -21.2321
1.092                  0.9963824       -21.33906
1.096                  0.9962392       -21.44618
1.1                    0.9960938       -21.55342
1.104                  0.9959463       -21.66079
1.108                  0.9957973       -21.76829
1.112                  0.9956468       -21.87594
1.116                   0.995495       -21.98372
1.12                   0.9953423       -22.09161
1.124                  0.9951888       -22.19969
1.128                  0.9950346       -22.30789
1.132                  0.9948802       -22.41624
1.136                  0.9947258       -22.52474
1.14                   0.9945715       -22.63341
1.144                  0.9944176       -22.74225
1.148                  0.9942645       -22.85125
1.152                  0.9941122       -22.96045
1.156                  0.9939609       -23.06984
1.16                   0.9938109       -23.17943
1.164                  0.9936624       -23.28923
1.168                  0.9935157       -23.39926
1.172                  0.9933709       -23.50953
1.176                  0.9932283       -23.62004
1.18                   0.9930879       -23.73082
1.184                  0.9929501       -23.84188
1.188                  0.9928151       -23.95324
1.192                  0.9926828        -24.0649
1.196                  0.9925535       -24.17688
1.2                    0.9924273       -24.28921
1.204                  0.9923045        -24.4019
1.208                  0.9921851       -24.51496
1.212                  0.9920691       -24.62843
1.216                  0.9919568        -24.7423
1.22                   0.9918482       -24.85661
1.224                  0.9917433       -24.97137
1.228                  0.9916424       -25.08661
1.232                  0.9915453       -25.20234
1.236                  0.9914521       -25.31859
1.24                    0.991363       -25.43537
1.244                  0.9912776       -25.55271
1.248                  0.9911964       -25.67063
1.252                   0.991119       -25.78916
1.256                  0.9910456       -25.90831
1.26                   0.9909759        -26.0281
1.264                    0.99091       -26.14856
1.268                   0.990848       -26.26971
1.272                  0.9907894       -26.39158
1.276                  0.9907343       -26.51417
1.28                   0.9906826       -26.63752
1.284                  0.9906344       -26.76165
1.288                  0.9905889       -26.88658
1.292                  0.9905466       -27.01232
1.296                  0.9905069       -27.13891
1.3                    0.9904699       -27.26636
1.304                  0.9904351       -27.39469
1.308                  0.9904025       -27.52392
1.312                  0.9903717       -27.65408
1.316                  0.9903427       -27.78517
1.32                   0.9903149       -27.91723
1.324                  0.9902884       -28.05025
1.328                  0.9902626       -28.18428
1.332                  0.9902376       -28.31931
1.336                  0.9902127       -28.45537
1.34                   0.9901877       -28.59248
1.344                  0.9901625       -28.73064
1.348                  0.9901365       -28.86988
1.352                  0.9901096        -29.0102
1.356                  0.9900812       -29.15162
1.36                   0.9900513       -29.29415
1.364                  0.9900193       -29.43781
1.368                   0.989985        -29.5826
1.372                  0.9899478       -29.72853
1.376                  0.9899076       -29.87561
1.38                    0.989864       -30.02386
1.384                  0.9898165       -30.17327
1.388                  0.9897648       -30.32386
1.392                  0.9897085       -30.47563
1.396                  0.9896473       -30.62859
1.4                    0.9895809       -30.78274
1.404                  0.9895088       -30.93808
1.408                  0.9894308       -31.09462
1.412                  0.9893465       -31.25236
1.416                  0.9892554       -31.41131
1.42                   0.9891573       -31.57145
1.424                  0.9890518        -31.7328
1.428                  0.9889385       -31.89535
1.432                  0.9888174       -32.05909
1.436                  0.9886879       -32.22403
1.44                   0.9885496       -32.39018
1.444                  0.9884024       -32.55751
1.448                  0.9882459       -32.72604
1.452                  0.9880801       -32.89574
1.456                  0.9879045       -33.06663
1.46                   0.9877187       -33.23868
1.464                  0.9875227       -33.41191
1.468                  0.9873161        -33.5863
1.472                  0.9870987       -33.76185
1.476                  0.9868707       -33.93854
1.48                   0.9866314       -34.11638
1.484                  0.9863808       -34.29535
1.488                  0.9861187       -34.47545
1.492                   0.985845       -34.65667
1.496                  0.9855597         -34.839
1.5                    0.9852623       -35.02244
1.504                  0.9849532       -35.20698
1.508                   0.984632       -35.39261
1.512                  0.9842987       -35.57932
1.516                  0.9839531        -35.7671
1.52                   0.9835955       -35.95595
1.524                  0.9832255       -36.14586
1.528                  0.9828433       -36.33683
1.532                   0.982449       -36.52885
1.536                  0.9820423       -36.72191
1.54                   0.9816237         -36.916
1.544                  0.9811929       -37.11113
1.548                    0.98075       -37.30729
1.552                  0.9802952       -37.50448
1.556                  0.9798286       -37.70268
1.56                   0.9793502       -37.90191
1.564                  0.9788602       -38.10216
1.568                  0.9783589       -38.30342
1.572                  0.9778459       -38.50571
1.576                   0.977322       -38.70901
1.58                   0.9767872       -38.91334
1.584                  0.9762415        -39.1187
1.588                   0.975685       -39.32508
1.592                  0.9751182       -39.53251
1.596                  0.9745414       -39.74097
1.6                    0.9739544       -39.95049
1.604                  0.9733576       -40.16107
1.608                  0.9727513       -40.37272
1.612                  0.9721356       -40.58545
1.616                  0.9715111       -40.79927
1.62                   0.9708774       -41.01421
1.624                  0.9702353       -41.23028
1.628                  0.9695848       -41.44748
1.632                  0.9689261       -41.66585
1.636                  0.9682596        -41.8854
1.64                   0.9675854       -42.10616
1.644                  0.9669038       -42.32814
1.648                  0.9662149       -42.55138
1.652                  0.9655192       -42.77589
1.656                  0.9648167       -43.00171
1.66                   0.9641074       -43.22886
1.664                   0.963392       -43.45739
1.668                  0.9626703       -43.68732
1.672                  0.9619425       -43.91867
1.676                  0.9612091        -44.1515
1.68                   0.9604698       -44.38584
1.684                  0.9597249       -44.62173
1.688                  0.9589746        -44.8592
1.692                  0.9582189        -45.0983
1.696                   0.957458       -45.33906
1.7                    0.9566918       -45.58155
1.704                  0.9559204        -45.8258
1.708                  0.9551437       -46.07187
1.712                  0.9543622       -46.31978
1.716                  0.9535752       -46.56961
1.72                    0.952783        -46.8214
1.724                  0.9519854       -47.07522
1.728                  0.9511826       -47.33109
1.732                   0.950374       -47.58909
1.736                  0.9495598       -47.84927
1.74                   0.9487396       -48.11168
1.744                  0.9479133        -48.3764
1.748                  0.9470807       -48.64347
1.752                  0.9462414       -48.91296
1.756                  0.9453952       -49.18491
1.76                   0.9445416       -49.45941
1.764                  0.9436804       -49.73652
1.768                  0.9428113       -50.01628
1.772                  0.9419336       -50.29878
1.776                   0.941047       -50.58406
1.78                   0.9401508       -50.87221
1.784                  0.9392448       -51.16328
1.788                  0.9383283       -51.45734
1.792                  0.9374006       -51.75445
1.796                  0.9364613       -52.05468
1.8                    0.9355095        -52.3581
1.804                  0.9345448       -52.66477
1.808                  0.9335662       -52.97476
1.812                   0.932573       -53.28814
1.816                  0.9315646       -53.60497
1.82                     0.93054       -53.92532
1.824                  0.9294985       -54.24925
1.828                  0.9284391       -54.57684
1.832                  0.9273611       -54.90813
1.836                  0.9262633       -55.24321
1.84                    0.925145       -55.58212
1.844                  0.9240052       -55.92495
1.848                  0.9228428       -56.27175
1.852                  0.9216569       -56.62258
1.856                  0.9204461       -56.97751
1.86                   0.9192097        -57.3366
1.864                  0.9179467        -57.6999
1.868                  0.9166556       -58.06749
1.872                  0.9153356       -58.43941
1.876                  0.9139854       -58.81572
1.88                   0.9126039       -59.19651
1.884                  0.9111899        -59.5818
1.888                  0.9097421       -59.97165
1.892                  0.9082597       -60.36614
1.896                   0.906741        -60.7653
1.9                    0.9051852       -61.16919
1.904                  0.9035907       -61.57788
1.908                  0.9019565        -61.9914
1.912                  0.9002814        -62.4098
1.916                   0.898564       -62.83316
1.92                   0.8968033        -63.2615
1.924                  0.8949977       -63.69488
1.928                  0.8931463       -64.13335
1.932                  0.8912477       -64.57696
1.936                  0.8893007       -65.02576
1.94                   0.8873042       -65.47978
1.944                  0.8852568       -65.93908
1.948                  0.8831575       -66.40369
1.952                  0.8810048       -66.87368
1.956                  0.8787979       -67.34906
1.96                   0.8765355       -67.82991
1.964                  0.8742162       -68.31626
1.968                  0.8718392       -68.80814
1.972                  0.8694033        -69.3056
1.976                  0.8669073       -69.80869
1.98                   0.8643503       -70.31744
1.984                  0.8617311       -70.83191
1.988                  0.8590488       -71.35211
1.992                  0.8563024       -71.87812
1.996                  0.8534909       -72.40996
2                      0.8506133       -72.94769
2.004                  0.8476689       -73.49134
2.008                  0.8446565       -74.04094
2.012                  0.8415756       -74.59656
2.016                  0.8384252       -75.15824
2.02                   0.8352047         -75.726
2.024                  0.8319132       -76.29992
2.028                  0.8285501       -76.88002
2.032                  0.8251148       -77.46636
2.036                  0.8216066       -78.05899
2.04                    0.818025       -78.65797
2.044                  0.8143693       -79.26334
2.048                  0.8106394       -79.87514
2.052                  0.8068345       -80.49346
2.056                  0.8029546       -81.11831
2.06                    0.798999       -81.74981
2.064                  0.7949675       -82.38796
2.068                  0.7908601       -83.03286
2.072                  0.7866765       -83.68455
2.076                  0.7824165       -84.34312
2.08                     0.77808       -85.00862
2.084                  0.7736673       -85.68115
2.088                   0.769178       -86.36078
2.092                  0.7646125       -87.04757
2.096                  0.7599708       -87.74163
2.1                    0.7552533       -88.44301
2.104                  0.7504601       -89.15185
2.108                  0.7455916        -89.8682
2.112                  0.7406482        -90.5922
2.116                  0.7356302        -91.3239
2.12                   0.7305386       -92.06347
2.124                  0.7253735       -92.81098
2.128                  0.7201358       -93.56658
2.132                  0.7148261       -94.33037
2.136                  0.7094454        -95.1025
2.14                   0.7039943       -95.88308
2.144                  0.6984738       -96.67229
2.148                   0.692885       -97.47027
2.152                  0.6872289       -98.27714
2.156                  0.6815067       -99.09313
2.16                   0.6757195       -99.91836
2.164                  0.6698687        -100.753
2.168                  0.6639556       -101.5974
2.172                  0.6579817       -102.4515
2.176                  0.6519486       -103.3157
2.18                   0.6458577       -104.1901
2.184                  0.6397109       -105.0751
2.188                  0.6335097       -105.9707
2.192                  0.6272563       -106.8774
2.196                  0.6209523       -107.7953
2.2                    0.6146001       -108.7247
2.204                  0.6082014        -109.666
2.208                  0.6017587       -110.6193
2.212                  0.5952743       -111.5851
2.216                  0.5887505       -112.5637
2.22                   0.5821899       -113.5554
2.224                  0.5755949       -114.5606
2.228                  0.5689684       -115.5796
2.232                  0.5623132       -116.6129
2.236                  0.5556321       -117.6609
2.24                   0.5489282        -118.724
2.244                  0.5422046       -119.8026
2.248                  0.5354647       -120.8973
2.252                  0.5287118       -122.0085
2.256                  0.5219494       -123.1367
2.26                    0.515181       -124.2825
2.264                  0.5084107       -125.4465
2.268                  0.5016421       -126.6291
2.272                  0.4948795        -127.831
2.276                  0.4881271       -129.0529
2.28                    0.481389       -130.2952
2.284                  0.4746699       -131.5588
2.288                  0.4679744       -132.8443
2.292                  0.4613074       -134.1523
2.296                  0.4546738       -135.4836
2.3                    0.4480789        -136.839
2.304                  0.4415279       -138.2191
2.308                  0.4350265       -139.6248
2.312                  0.4285803       -141.0567
2.316                  0.4221953       -142.5158
2.32                   0.4158774       -144.0026
2.324                  0.4096331       -145.5181
2.328                  0.4034689        -147.063
2.332                  0.3973912        -148.638
2.336                  0.3914071       -150.2438
2.34                   0.3855235       -151.8812
2.344                  0.3797476       -153.5508
2.348                   0.374087       -155.2533
2.352                  0.3685489       -156.9891