! TOUCHSTONE file generated by CST MICROWAVE STUDIO
! Date and time: Sat May 14 11:21:35 2022
! Project name: AppElm_antenne_dipole_Alumina.cst
! Parameters = {L=33; e=0.035; f=2.45e+09; h=1.6; i=0.8; l1=2; lambda=122.449; ls=30; wl=1.7; ws=64}
! Header version: 2018
! Port assignment regex: !\s*Touchstone port\s*([0-9]+)\s*=\s*(CST MWS port|CST DS port)\s*([0-9]+|Zmin|Zmax)\s*\(\"(.*)\"\)(\s*mode\s*([0-9]+))?.*
! Touchstone port assignment:
! Touchstone port 1 = CST MWS port 1 ("")
# GHz S MA R 50
0                              1              -0
0.004                  0.9999984     -0.07007472
0.008                  0.9999936       -0.140141
0.012                  0.9999857      -0.2101904
0.016                  0.9999746      -0.2802145
0.02                   0.9999605       -0.350205
0.024                  0.9999433      -0.4201537
0.028                   0.999923      -0.4900526
0.032                  0.9998998      -0.5598935
0.036                  0.9998736      -0.6296686
0.04                   0.9998446      -0.6993705
0.044                  0.9998129      -0.7689916
0.048                  0.9997783      -0.8385247
0.052                  0.9997414      -0.9079628
0.056                  0.9997017      -0.9772993
0.06                   0.9996598       -1.046528
0.064                  0.9996155       -1.115642
0.068                   0.999569       -1.184636
0.072                  0.9995205       -1.253505
0.076                  0.9994699       -1.322243
0.08                   0.9994177       -1.390846
0.084                  0.9993637       -1.459309
0.088                   0.999308       -1.527628
0.092                  0.9992511       -1.595801
0.096                  0.9991929       -1.663822
0.1                    0.9991337        -1.73169
0.104                  0.9990735       -1.799403
0.108                  0.9990124       -1.866959
0.112                  0.9989506       -1.934356
0.116                  0.9988885       -2.001593
0.12                    0.998826        -2.06867
0.124                  0.9987633       -2.135587
0.128                  0.9987007       -2.202344
0.132                  0.9986383       -2.268942
0.136                   0.998576       -2.335383
0.14                   0.9985144       -2.401668
0.144                  0.9984533       -2.467801
0.148                  0.9983931       -2.533783
0.152                  0.9983339       -2.599617
0.156                  0.9982756       -2.665309
0.16                   0.9982188       -2.730861
0.164                  0.9981633       -2.796278
0.168                  0.9981094       -2.861566
0.172                  0.9980571       -2.926729
0.176                  0.9980067       -2.991775
0.18                   0.9979582       -3.056708
0.184                  0.9979119       -3.121536
0.188                  0.9978678       -3.186266
0.192                   0.997826       -3.250904
0.196                  0.9977866        -3.31546
0.2                    0.9977498        -3.37994
0.204                  0.9977155       -3.444353
0.208                  0.9976841       -3.508707
0.212                  0.9976553       -3.573013
0.216                  0.9976296       -3.637277
0.22                   0.9976068       -3.701511
0.224                  0.9975869       -3.765723
0.228                  0.9975702       -3.829924
0.232                  0.9975566       -3.894123
0.236                  0.9975461       -3.958329
0.24                   0.9975388       -4.022554
0.244                  0.9975347       -4.086807
0.248                  0.9975338       -4.151098
0.252                  0.9975362       -4.215439
0.256                  0.9975418       -4.279838
0.26                   0.9975505       -4.344307
0.264                  0.9975624       -4.408856
0.268                  0.9975775       -4.473493
0.272                  0.9975957       -4.538232
0.276                  0.9976171       -4.603079
0.28                   0.9976413       -4.668047
0.284                  0.9976686       -4.733144
0.288                  0.9976988        -4.79838
0.292                  0.9977317       -4.863764
0.296                  0.9977674       -4.929304
0.3                    0.9978057       -4.995011
0.304                  0.9978466       -5.060893
0.308                  0.9978899       -5.126957
0.312                  0.9979355       -5.193211
0.316                  0.9979832       -5.259666
0.32                   0.9980332       -5.326325
0.324                   0.998085       -5.393197
0.328                  0.9981388       -5.460287
0.332                  0.9981941       -5.527603
0.336                  0.9982509       -5.595151
0.34                   0.9983092       -5.662934
0.344                  0.9983687       -5.730959
0.348                  0.9984293       -5.799229
0.352                  0.9984909        -5.86775
0.356                   0.998553       -5.936525
0.36                   0.9986159       -6.005555
0.364                  0.9986792       -6.074844
0.368                  0.9987426       -6.144395
0.372                  0.9988063       -6.214208
0.376                  0.9988698       -6.284286
0.38                   0.9989332       -6.354627
0.384                   0.998996       -6.425235
0.388                  0.9990584       -6.496107
0.392                  0.9991199       -6.567243
0.396                  0.9991805       -6.638641
0.4                    0.9992401       -6.710301
0.404                  0.9992984       -6.782219
0.408                  0.9993553       -6.854394
0.412                  0.9994107       -6.926822
0.416                  0.9994645       -6.999499
0.42                   0.9995163       -7.072422
0.424                   0.999566       -7.145587
0.428                  0.9996137       -7.218989
0.432                  0.9996591       -7.292622
0.436                  0.9997022       -7.366481
0.44                   0.9997426        -7.44056
0.444                  0.9997805       -7.514853
0.448                  0.9998157       -7.589354
0.452                  0.9998479       -7.664054
0.456                  0.9998772       -7.738947
0.46                   0.9999035       -7.814029
0.464                  0.9999268       -7.889286
0.468                  0.9999468       -7.964716
0.472                  0.9999634       -8.040309
0.476                  0.9999768       -8.116055
0.48                   0.9999868       -8.191947
0.484                  0.9999935       -8.267975
0.488                  0.9999968       -8.344131
0.492                  0.9999965       -8.420409
0.496                  0.9999927       -8.496797
0.5                    0.9999855       -8.573286
0.504                  0.9999749       -8.649871
0.508                  0.9999607       -8.726539
0.512                  0.9999431       -8.803281
0.516                  0.9999219       -8.880093
0.52                   0.9998974       -8.956963
0.524                  0.9998696       -9.033881
0.528                  0.9998385       -9.110841
0.532                  0.9998042       -9.187834
0.536                  0.9997666       -9.264855
0.54                    0.999726        -9.34189
0.544                  0.9996823       -9.418935
0.548                  0.9996357       -9.495983
0.552                  0.9995864       -9.573028
0.556                  0.9995344       -9.650059
0.56                   0.9994798       -9.727072
0.564                  0.9994226       -9.804062
0.568                  0.9993632       -9.881021
0.572                  0.9993016       -9.957945
0.576                  0.9992378       -10.03483
0.58                   0.9991722       -10.11167
0.584                  0.9991048       -10.18846
0.588                  0.9990358        -10.2652
0.592                  0.9989654       -10.34188
0.596                  0.9988936        -10.4185
0.6                    0.9988208       -10.49506
0.604                  0.9987469       -10.57156
0.608                  0.9986724         -10.648
0.612                  0.9985971       -10.72437
0.616                  0.9985215       -10.80068
0.62                   0.9984456       -10.87692
0.624                  0.9983697        -10.9531
0.628                  0.9982938       -11.02922
0.632                  0.9982182       -11.10527
0.636                  0.9981432       -11.18127
0.64                   0.9980688       -11.25721
0.644                  0.9979952        -11.3331
0.648                  0.9979225       -11.40894
0.652                  0.9978512       -11.48474
0.656                   0.997781       -11.56051
0.66                   0.9977124       -11.63623
0.664                  0.9976456       -11.71194
0.668                  0.9975804       -11.78762
0.672                  0.9975173       -11.86329
0.676                  0.9974563       -11.93896
0.68                   0.9973976       -12.01463
0.684                  0.9973412       -12.09031
0.688                  0.9972876       -12.16601
0.692                  0.9972365       -12.24174
0.696                  0.9971882       -12.31751
0.7                    0.9971428       -12.39333
0.704                  0.9971004       -12.46921
0.708                  0.9970612       -12.54516
0.712                   0.997025       -12.62119
0.716                  0.9969923       -12.69732
0.72                   0.9969628       -12.77354
0.724                  0.9969366       -12.84989
0.728                   0.996914       -12.92636
0.732                  0.9968949       -13.00298
0.736                  0.9968792       -13.07975
0.74                   0.9968672       -13.15668
0.744                  0.9968587       -13.23379
0.748                  0.9968538       -13.31109
0.752                  0.9968524        -13.3886
0.756                  0.9968547       -13.46632
0.76                   0.9968604       -13.54427
0.764                  0.9968696       -13.62246
0.768                  0.9968823       -13.70091
0.772                  0.9968984       -13.77962
0.776                  0.9969178       -13.85861
0.78                   0.9969404        -13.9379
0.784                  0.9969665       -14.01748
0.788                  0.9969953       -14.09738
0.792                  0.9970272       -14.17761
0.796                  0.9970621       -14.25818
0.8                    0.9970997        -14.3391
0.804                  0.9971399       -14.42037
0.808                  0.9971826       -14.50202
0.812                  0.9972277       -14.58405
0.816                   0.997275       -14.66647
0.82                   0.9973244       -14.74929
0.824                  0.9973757       -14.83251
0.828                  0.9974287       -14.91616
0.832                  0.9974833       -15.00022
0.836                  0.9975392       -15.08473
0.84                   0.9975962       -15.16967
0.844                  0.9976544       -15.25505
0.848                  0.9977132       -15.34089
0.852                  0.9977727       -15.42719
0.856                  0.9978326       -15.51394
0.86                   0.9978928       -15.60117
0.864                  0.9979529       -15.68886
0.868                  0.9980127       -15.77703
0.872                  0.9980721       -15.86568
0.876                   0.998131        -15.9548
0.88                   0.9981889        -16.0444
0.884                  0.9982458       -16.13449
0.888                  0.9983014       -16.22505
0.892                  0.9983555        -16.3161
0.896                   0.998408       -16.40763
0.9                    0.9984586       -16.49963
0.904                  0.9985071       -16.59212
0.908                  0.9985532       -16.68508
0.912                   0.998597       -16.77851
0.916                   0.998638       -16.87241
0.92                   0.9986762       -16.96677
0.924                  0.9987114       -17.06159
0.928                  0.9987432       -17.15687
0.932                  0.9987719       -17.25259
0.936                  0.9987969       -17.34877
0.94                   0.9988183       -17.44537
0.944                  0.9988358       -17.54241
0.948                  0.9988492       -17.63987
0.952                  0.9988586       -17.73775
0.956                  0.9988637       -17.83604
0.96                   0.9988646       -17.93472
0.964                   0.998861        -18.0338
0.968                  0.9988528       -18.13327
0.972                    0.99884        -18.2331
0.976                  0.9988225        -18.3333
0.98                   0.9988001       -18.43386
0.984                  0.9987731       -18.53476
0.988                  0.9987411         -18.636
0.992                  0.9987041       -18.73757
0.996                  0.9986624       -18.83945
1                      0.9986157       -18.94164
1.004                  0.9985639       -19.04413
1.008                  0.9985073       -19.14692
1.012                  0.9984459       -19.24997
1.016                  0.9983795        -19.3533
1.02                   0.9983082       -19.45688
1.024                  0.9982322       -19.56069
1.028                  0.9981515       -19.66479
1.032                  0.9980661        -19.7691
1.036                  0.9979762       -19.87363
1.04                   0.9978819       -19.97837
1.044                  0.9977832       -20.08331
1.048                  0.9976802       -20.18847
1.052                  0.9975731       -20.29382
1.056                   0.997462       -20.39936
1.06                   0.9973471       -20.50507
1.064                  0.9972285       -20.61096
1.068                  0.9971065       -20.71702
1.072                   0.996981       -20.82322
1.076                  0.9968524        -20.9296
1.08                   0.9967208        -21.0361
1.084                  0.9965863       -21.14279
1.088                  0.9964494       -21.24961
1.092                  0.9963099       -21.35657
1.096                  0.9961683       -21.46369
1.1                    0.9960246       -21.57096
1.104                  0.9958792       -21.67835
1.108                  0.9957322       -21.78589
1.112                  0.9955839       -21.89359
1.116                  0.9954345       -22.00145
1.12                   0.9952842       -22.10942
1.124                  0.9951332       -22.21756
1.128                  0.9949817       -22.32586
1.132                    0.99483       -22.43432
1.136                  0.9946784       -22.54296
1.14                    0.994527       -22.65176
1.144                  0.9943761       -22.76075
1.148                  0.9942259       -22.86993
1.152                  0.9940766       -22.97931
1.156                  0.9939284       -23.08889
1.16                   0.9937815        -23.1987
1.164                  0.9936361       -23.30874
1.168                  0.9934925       -23.41901
1.172                  0.9933508       -23.52954
1.176                  0.9932111       -23.64034
1.18                   0.9930738       -23.75141
1.184                   0.992939       -23.86279
1.188                  0.9928068       -23.97447
1.192                  0.9926772       -24.08647
1.196                  0.9925506       -24.19882
1.2                    0.9924272       -24.31153
1.204                  0.9923067       -24.42461
1.208                  0.9921896       -24.53808
1.212                   0.992076       -24.65197
1.216                  0.9919657       -24.76629
1.22                    0.991859       -24.88105
1.224                  0.9917558       -24.99629
1.228                  0.9916564       -25.11202
1.232                  0.9915607       -25.22824
1.236                  0.9914686       -25.34501
1.24                   0.9913803       -25.46233
1.244                  0.9912957       -25.58021
1.248                  0.9912149       -25.69869
1.252                  0.9911376       -25.81778
1.256                  0.9910641       -25.93752
1.26                   0.9909941        -26.0579
1.264                  0.9909277       -26.17896
1.268                  0.9908646       -26.30073
1.272                  0.9908049       -26.42321
1.276                  0.9907484       -26.54644
1.28                   0.9906949       -26.67043
1.284                  0.9906444       -26.79521
1.288                  0.9905966       -26.92079
1.292                  0.9905515        -27.0472
1.296                  0.9905087       -27.17446
1.3                    0.9904681       -27.30258
1.304                  0.9904297       -27.43159
1.308                   0.990393        -27.5615
1.312                  0.9903578       -27.69234
1.316                   0.990324       -27.82412
1.32                   0.9902912       -27.95686
1.324                  0.9902592       -28.09058
1.328                  0.9902277       -28.22529
1.332                  0.9901965         -28.361
1.336                  0.9901651       -28.49776
1.34                   0.9901334       -28.63555
1.344                   0.990101       -28.77439
1.348                  0.9900676        -28.9143
1.352                   0.990033       -29.05529
1.356                  0.9899966       -29.19738
1.36                   0.9899583       -29.34058
1.364                  0.9899176       -29.48489
1.368                  0.9898742       -29.63033
1.372                  0.9898278        -29.7769
1.376                  0.9897781       -29.92461
1.38                   0.9897246       -30.07349
1.384                   0.989667       -30.22351
1.388                   0.989605       -30.37471
1.392                  0.9895381       -30.52707
1.396                  0.9894662       -30.68062
1.4                    0.9893887       -30.83534
1.404                  0.9893054       -30.99125
1.408                  0.9892159       -31.14834
1.412                  0.9891199       -31.30662
1.416                  0.9890169       -31.46609
1.42                   0.9889068       -31.62675
1.424                  0.9887892       -31.78859
1.428                  0.9886638       -31.95163
1.432                  0.9885301       -32.11586
1.436                  0.9883881       -32.28126
1.44                   0.9882373       -32.44786
1.444                  0.9880774       -32.61563
1.448                  0.9879083       -32.78457
1.452                  0.9877296       -32.95469
1.456                  0.9875411       -33.12598
1.46                   0.9873424       -33.29842
1.464                  0.9871335       -33.47203
1.468                  0.9869141       -33.64678
1.472                  0.9866839       -33.82268
1.476                  0.9864429       -33.99972
1.48                   0.9861907       -34.17789
1.484                  0.9859274       -34.35717
1.488                  0.9856527       -34.53759
1.492                  0.9853663       -34.71911
1.496                  0.9850685       -34.90173
1.5                    0.9847586       -35.08546
1.504                  0.9844371       -35.27027
1.508                  0.9841037       -35.45616
1.512                  0.9837582       -35.64314
1.516                  0.9834008       -35.83118
1.52                   0.9830311       -36.02029
1.524                  0.9826497       -36.21045
1.528                   0.982256       -36.40167
1.532                  0.9818502       -36.59393
1.536                  0.9814325       -36.78724
1.54                   0.9810029       -36.98158
1.544                  0.9805612       -37.17696
1.548                  0.9801078       -37.37337
1.552                  0.9796426       -37.57081
1.556                  0.9791657       -37.76927
1.56                   0.9786773       -37.96877
1.564                  0.9781775       -38.16929
1.568                  0.9776664       -38.37083
1.572                  0.9771441       -38.57341
1.576                  0.9766109       -38.77701
1.58                   0.9760668       -38.98165
1.584                  0.9755122       -39.18733
1.588                  0.9749471       -39.39405
1.592                  0.9743717       -39.60183
1.596                  0.9737862       -39.81066
1.6                    0.9731909       -40.02057
1.604                  0.9725861       -40.23155
1.608                  0.9719717       -40.44362
1.612                  0.9713482       -40.65679
1.616                  0.9707156       -40.87109
1.62                   0.9700744       -41.08652
1.624                  0.9694245        -41.3031
1.628                  0.9687663       -41.52085
1.632                  0.9681001       -41.73979
1.636                   0.967426       -41.95994
1.64                   0.9667442       -42.18132
1.644                  0.9660549       -42.40397
1.648                  0.9653584       -42.62789
1.652                  0.9646549       -42.85313
1.656                  0.9639445        -43.0797
1.66                   0.9632274       -43.30765
1.664                  0.9625039         -43.537
1.668                  0.9617739       -43.76779
1.672                  0.9610378       -44.00005
1.676                  0.9602956       -44.23381
1.68                   0.9595473       -44.46913
1.684                  0.9587934       -44.70601
1.688                  0.9580336       -44.94454
1.692                  0.9572681       -45.18473
1.696                  0.9564969       -45.42662
1.7                    0.9557201       -45.67029
1.704                  0.9549377       -45.91575
1.708                  0.9541496       -46.16307
1.712                  0.9533558       -46.41228
1.716                  0.9525563       -46.66345
1.72                   0.9517511       -46.91662
1.724                    0.95094       -47.17184
1.728                  0.9501227       -47.42917
1.732                  0.9492991       -47.68867
1.736                  0.9484692       -47.95039
1.74                   0.9476327       -48.21439
1.744                  0.9467893       -48.48072
1.748                  0.9459387       -48.74945
1.752                  0.9450807       -49.02063
1.756                  0.9442148       -49.29433
1.76                   0.9433409        -49.5706
1.764                  0.9424582       -49.84951
1.768                  0.9415666       -50.13112
1.772                  0.9406657       -50.41549
1.776                  0.9397546        -50.7027
1.78                    0.938833       -50.99279
1.784                  0.9379007       -51.28584
1.788                  0.9369565        -51.5819
1.792                  0.9360002       -51.88104
1.796                   0.935031       -52.18334
1.8                    0.9340483       -52.48885
1.804                  0.9330513       -52.79764
1.808                  0.9320393       -53.10977
1.812                  0.9310114       -53.42531
1.816                  0.9299671       -53.74432
1.82                   0.9289054       -54.06685
1.824                  0.9278253       -54.39301
1.828                  0.9267261       -54.72282
1.832                   0.925607       -55.05636
1.836                  0.9244668       -55.39369
1.84                   0.9233045       -55.73488
1.844                  0.9221194       -56.07998
1.848                  0.9209105       -56.42905
1.852                  0.9196765       -56.78217
1.856                  0.9184165       -57.13938
1.86                   0.9171293       -57.50075
1.864                  0.9158139       -57.86635
1.868                  0.9144693       -58.23621
1.872                  0.9130944       -58.61041
1.876                  0.9116877       -58.98899
1.88                   0.9102484       -59.37203
1.884                  0.9087751       -59.75956
1.888                  0.9072668       -60.15165
1.892                  0.9057223       -60.54835
1.896                  0.9041402       -60.94972
1.9                    0.9025195       -61.35579
1.904                  0.9008588       -61.76664
1.908                  0.8991572       -62.18229
1.912                  0.8974132        -62.6028
1.916                  0.8956257       -63.02824
1.92                   0.8937935       -63.45864
1.924                  0.8919151       -63.89405
1.928                  0.8899896       -64.33453
1.932                  0.8880157       -64.78009
1.936                  0.8859922       -65.23083
1.94                   0.8839179       -65.68673
1.944                  0.8817916       -66.14788
1.948                  0.8796121       -66.61431
1.952                  0.8773783       -67.08607
1.956                   0.875089       -67.56319
1.96                   0.8727431       -68.04571
1.964                  0.8703394        -68.5337
1.968                  0.8678769       -69.02718
1.972                  0.8653545       -69.52618
1.976                  0.8627712       -70.03077
1.98                   0.8601259       -70.54097
1.984                  0.8574175       -71.05683
1.988                  0.8546451        -71.5784
1.992                  0.8518079       -72.10569
1.996                  0.8489047       -72.63877
2                      0.8459348       -73.17769
2.004                  0.8428971       -73.72246
2.008                  0.8397912       -74.27313
2.012                  0.8366159       -74.82977
2.016                  0.8333706        -75.3924
2.02                   0.8300547       -75.96108
2.024                  0.8266672       -76.53583
2.028                  0.8232078       -77.11673
2.032                  0.8196757       -77.70379
2.036                  0.8160703       -78.29709
2.04                    0.812391       -78.89668
2.044                  0.8086376        -79.5026
2.048                  0.8048097        -80.1149
2.052                  0.8009066       -80.73364
2.056                  0.7969282       -81.35887
2.06                   0.7928741       -81.99068
2.064                  0.7887442        -82.6291
2.068                  0.7845381       -83.27419
2.072                  0.7802558       -83.92604
2.076                  0.7758972       -84.58469
2.08                   0.7714624       -85.25024
2.084                  0.7669513       -85.92275
2.088                   0.762364        -86.6023
2.092                  0.7577005       -87.28897
2.096                  0.7529612       -87.98284
2.1                    0.7481463       -88.68401
2.104                  0.7432562       -89.39257
2.108                  0.7382912       -90.10862
2.112                  0.7332516       -90.83225
2.116                  0.7281381       -91.56356
2.12                   0.7229511       -92.30269
2.124                  0.7176914       -93.04973
2.128                  0.7123597       -93.80482
2.132                  0.7069566       -94.56808
2.136                   0.701483       -95.33964
2.14                   0.6959399       -96.11964
2.144                  0.6903281       -96.90824
2.148                  0.6846487       -97.70558
2.152                  0.6789027       -98.51183
2.156                  0.6730916       -99.32717
2.16                   0.6672163       -100.1518
2.164                  0.6612783       -100.9858
2.168                   0.655279       -101.8295
2.172                  0.6492197        -102.683
2.176                  0.6431022       -103.5466
2.18                   0.6369279       -104.4205
2.184                  0.6306989       -105.3049
2.188                  0.6244165       -106.2001
2.192                   0.618083       -107.1064
2.196                  0.6117001        -108.024
2.2                    0.6052699       -108.9531
2.204                  0.5987947       -109.8942
2.208                  0.5922767       -110.8475
2.212                   0.585718       -111.8133
2.216                  0.5791212       -112.7921
2.22                   0.5724889       -113.7841
2.224                  0.5658235       -114.7897
2.228                  0.5591281       -115.8094
2.232                  0.5524052       -116.8435
2.236                  0.5456578       -117.8926
2.24                    0.538889       -118.9569
2.244                  0.5321022       -120.0371
2.248                  0.5253003       -121.1337
2.252                  0.5184869        -122.247
2.256                  0.5116656       -123.3777
2.26                   0.5048402       -124.5264
2.264                  0.4980141       -125.6936
2.268                  0.4911916       -126.8799
2.272                  0.4843767        -128.086
2.276                  0.4775737       -129.3125
2.28                   0.4707868         -130.56
2.284                  0.4640208       -131.8294
2.288                  0.4572803       -133.1213
2.292                  0.4505703       -134.4365
2.296                  0.4438958       -135.7756
2.3                    0.4372621       -137.1396
2.304                  0.4306746       -138.5292
2.308                  0.4241389       -139.9453
2.312                   0.417661       -141.3886
2.316                  0.4112466       -142.8599
2.32                   0.4049023       -144.3602
2.324                  0.3986342       -145.8903
2.328                   0.392449       -147.4509
2.332                  0.3863537        -149.043
2.336                  0.3803551       -150.6672
2.34                   0.3744605       -152.3244
2.344                  0.3686775       -154.0152
2.348                  0.3630133       -155.7404
2.352                  0.3574758       -157.5005