! TOUCHSTONE file generated by CST MICROWAVE STUDIO
! Date and time: Sat May 14 11:21:42 2022
! Project name: AppElm_antenne_dipole_Alumina.cst
! Parameters = {L=33; e=0.035; f=2.45e+09; h=1.6; i=0.8; l1=2; lambda=122.449; ls=30; wl=1.7; ws=88}
! Header version: 2018
! Port assignment regex: !\s*Touchstone port\s*([0-9]+)\s*=\s*(CST MWS port|CST DS port)\s*([0-9]+|Zmin|Zmax)\s*\(\"(.*)\"\)(\s*mode\s*([0-9]+))?.*
! Touchstone port assignment:
! Touchstone port 1 = CST MWS port 1 ("")
# GHz S MA R 50
0                              1              -0
0.004                  0.9999987     -0.06954339
0.008                  0.9999946      -0.1390798
0.012                   0.999988      -0.2086023
0.016                  0.9999788      -0.2781039
0.02                    0.999967      -0.3475778
0.024                  0.9999525      -0.4170172
0.028                  0.9999357      -0.4864154
0.032                  0.9999162      -0.5557659
0.036                  0.9998945      -0.6250621
0.04                   0.9998702       -0.694298
0.044                  0.9998436      -0.7634673
0.048                  0.9998149      -0.8325641
0.052                  0.9997839      -0.9015825
0.056                  0.9997508      -0.9705174
0.06                   0.9997158       -1.039363
0.064                  0.9996788       -1.108115
0.068                  0.9996399       -1.176769
0.072                  0.9995995       -1.245319
0.076                  0.9995573       -1.313762
0.08                   0.9995137       -1.382094
0.084                  0.9994687       -1.450311
0.088                  0.9994224        -1.51841
0.092                  0.9993748       -1.586389
0.096                  0.9993264       -1.654245
0.1                    0.9992769       -1.721976
0.104                  0.9992267       -1.789579
0.108                  0.9991759       -1.857054
0.112                  0.9991245         -1.9244
0.116                  0.9990728       -1.991616
0.12                   0.9990208       -2.058702
0.124                  0.9989687       -2.125657
0.128                  0.9989166       -2.192484
0.132                  0.9988647       -2.259182
0.136                   0.998813       -2.325753
0.14                   0.9987618       -2.392198
0.144                  0.9987112        -2.45852
0.148                  0.9986612       -2.524722
0.152                  0.9986121       -2.590806
0.156                  0.9985639       -2.656777
0.16                   0.9985167       -2.722636
0.164                  0.9984708       -2.788389
0.168                  0.9984263        -2.85404
0.172                  0.9983831       -2.919593
0.176                  0.9983416       -2.985054
0.18                   0.9983015       -3.050429
0.184                  0.9982634       -3.115723
0.188                  0.9982271       -3.180941
0.192                  0.9981928       -3.246092
0.196                  0.9981605        -3.31118
0.2                    0.9981303       -3.376214
0.204                  0.9981024         -3.4412
0.208                  0.9980768       -3.506146
0.212                  0.9980535       -3.571059
0.216                  0.9980327       -3.635946
0.22                   0.9980143       -3.700818
0.224                  0.9979986       -3.765681
0.228                  0.9979853       -3.830543
0.232                  0.9979745       -3.895414
0.236                  0.9979665       -3.960301
0.24                   0.9979611       -4.025214
0.244                  0.9979585        -4.09016
0.248                  0.9979585       -4.155149
0.252                  0.9979612       -4.220188
0.256                  0.9979665        -4.28529
0.26                   0.9979746       -4.350459
0.264                  0.9979853       -4.415706
0.268                  0.9979987        -4.48104
0.272                  0.9980145       -4.546468
0.276                  0.9980329          -4.612
0.28                   0.9980539       -4.677644
0.284                  0.9980772       -4.743407
0.288                  0.9981031       -4.809298
0.292                   0.998131       -4.875327
0.296                  0.9981614       -4.941497
0.3                    0.9981939       -5.007818
0.304                  0.9982285       -5.074298
0.308                   0.998265       -5.140943
0.312                  0.9983035        -5.20776
0.316                  0.9983438       -5.274755
0.32                   0.9983858       -5.341934
0.324                  0.9984293       -5.409305
0.328                  0.9984743       -5.476871
0.332                  0.9985207       -5.544638
0.336                  0.9985682       -5.612611
0.34                   0.9986169       -5.680794
0.344                  0.9986666       -5.749192
0.348                   0.998717       -5.817808
0.352                  0.9987682       -5.886646
0.356                    0.99882       -5.955707
0.36                   0.9988721       -6.024996
0.364                  0.9989246       -6.094515
0.368                  0.9989771       -6.164265
0.372                  0.9990297       -6.234246
0.376                  0.9990822       -6.304462
0.38                   0.9991344       -6.374911
0.384                  0.9991862       -6.445594
0.388                  0.9992374       -6.516513
0.392                   0.999288       -6.587662
0.396                  0.9993375       -6.659046
0.4                    0.9993861       -6.730658
0.404                  0.9994338       -6.802501
0.408                  0.9994801       -6.874571
0.412                   0.999525       -6.946863
0.416                  0.9995685       -7.019377
0.42                   0.9996103       -7.092109
0.424                  0.9996504       -7.165055
0.428                  0.9996886       -7.238212
0.432                   0.999725       -7.311573
0.436                  0.9997592       -7.385135
0.44                   0.9997911       -7.458895
0.444                  0.9998209       -7.532845
0.448                  0.9998484        -7.60698
0.452                  0.9998734       -7.681295
0.456                  0.9998958       -7.755785
0.46                   0.9999156       -7.830444
0.464                  0.9999328       -7.905262
0.468                  0.9999473       -7.980234
0.472                   0.999959       -8.055356
0.476                   0.999968       -8.130618
0.48                    0.999974       -8.206015
0.484                  0.9999772        -8.28154
0.488                  0.9999776       -8.357183
0.492                  0.9999748       -8.432942
0.496                  0.9999694       -8.508803
0.5                    0.9999608       -8.584765
0.504                  0.9999494       -8.660818
0.508                  0.9999351       -8.736953
0.512                  0.9999177       -8.813167
0.516                  0.9998978       -8.889449
0.52                   0.9998748       -8.965794
0.524                  0.9998491       -9.042195
0.528                  0.9998206       -9.118645
0.532                  0.9997895       -9.195136
0.536                  0.9997556       -9.271664
0.54                   0.9997193        -9.34822
0.544                  0.9996804       -9.424801
0.548                  0.9996392         -9.5014
0.552                  0.9995958        -9.57801
0.556                  0.9995501       -9.654628
0.56                   0.9995022       -9.731246
0.564                  0.9994523       -9.807861
0.568                  0.9994005       -9.884471
0.572                  0.9993469       -9.961067
0.576                  0.9992919       -10.03765
0.58                   0.9992352       -10.11421
0.584                   0.999177       -10.19075
0.588                  0.9991176       -10.26727
0.592                  0.9990572       -10.34376
0.596                  0.9989955       -10.42022
0.6                    0.9989332       -10.49666
0.604                  0.9988701       -10.57306
0.608                  0.9988064       -10.64943
0.612                  0.9987423       -10.72577
0.616                   0.998678       -10.80208
0.62                   0.9986135       -10.87836
0.624                  0.9985491       -10.95461
0.628                  0.9984848       -11.03084
0.632                  0.9984209       -11.10703
0.636                  0.9983575       -11.18321
0.64                   0.9982947       -11.25937
0.644                  0.9982327       -11.33551
0.648                  0.9981716       -11.41164
0.652                  0.9981116       -11.48777
0.656                  0.9980527       -11.56389
0.66                   0.9979952       -11.64002
0.664                  0.9979392       -11.71615
0.668                  0.9978847        -11.7923
0.672                  0.9978321       -11.86847
0.676                  0.9977812       -11.94467
0.68                   0.9977324        -12.0209
0.684                  0.9976856       -12.09718
0.688                  0.9976409       -12.17351
0.692                  0.9975986        -12.2499
0.696                  0.9975586       -12.32636
0.7                    0.9975212       -12.40289
0.704                  0.9974862       -12.47951
0.708                   0.997454       -12.55623
0.712                  0.9974243       -12.63305
0.716                  0.9973974       -12.70999
0.72                   0.9973732       -12.78705
0.724                  0.9973519       -12.86426
0.728                  0.9973335        -12.9416
0.732                  0.9973181       -13.01911
0.736                  0.9973055       -13.09678
0.74                   0.9972959       -13.17463
0.744                  0.9972891       -13.25268
0.748                  0.9972854       -13.33092
0.752                  0.9972845       -13.40938
0.756                  0.9972866       -13.48805
0.76                   0.9972914       -13.56697
0.764                  0.9972992       -13.64612
0.768                  0.9973099       -13.72553
0.772                  0.9973231       -13.80521
0.776                  0.9973391       -13.88517
0.78                   0.9973576       -13.96541
0.784                  0.9973787       -14.04595
0.788                  0.9974022        -14.1268
0.792                  0.9974281       -14.20796
0.796                  0.9974563       -14.28946
0.8                    0.9974866       -14.37128
0.804                  0.9975189       -14.45346
0.808                  0.9975531       -14.53599
0.812                  0.9975891       -14.61887
0.816                  0.9976268       -14.70214
0.82                   0.9976659       -14.78578
0.824                  0.9977064        -14.8698
0.828                  0.9977481       -14.95422
0.832                   0.997791       -15.03904
0.836                  0.9978347       -15.12426
0.84                   0.9978792        -15.2099
0.844                  0.9979242       -15.29595
0.848                  0.9979697       -15.38242
0.852                  0.9980154       -15.46932
0.856                  0.9980612       -15.55665
0.86                   0.9981069       -15.64441
0.864                  0.9981522       -15.73262
0.868                  0.9981971       -15.82125
0.872                  0.9982414       -15.91033
0.876                  0.9982849       -15.99986
0.88                   0.9983273       -16.08983
0.884                  0.9983687       -16.18024
0.888                  0.9984086        -16.2711
0.892                   0.998447        -16.3624
0.896                  0.9984837       -16.45414
0.9                    0.9985185       -16.54633
0.904                  0.9985514       -16.63896
0.908                   0.998582       -16.73202
0.912                  0.9986103       -16.82553
0.916                   0.998636       -16.91946
0.92                    0.998659       -17.01382
0.924                  0.9986793       -17.10861
0.928                  0.9986965       -17.20382
0.932                  0.9987106       -17.29946
0.936                  0.9987216       -17.39549
0.94                   0.9987292       -17.49194
0.944                  0.9987333       -17.58879
0.948                  0.9987338       -17.68603
0.952                  0.9987308       -17.78366
0.956                  0.9987238       -17.88167
0.96                    0.998713       -17.98005
0.964                  0.9986983       -18.07881
0.968                  0.9986795       -18.17793
0.972                  0.9986566        -18.2774
0.976                  0.9986296       -18.37722
0.98                   0.9985985       -18.47737
0.984                  0.9985631       -18.57786
0.988                  0.9985235       -18.67867
0.992                  0.9984795        -18.7798
0.996                  0.9984313       -18.88123
1                      0.9983789       -18.98297
1.004                  0.9983221       -19.08499
1.008                  0.9982612       -19.18733
1.012                   0.998196       -19.28989
1.016                  0.9981266       -19.39275
1.02                   0.9980531       -19.49589
1.024                  0.9979755       -19.59924
1.028                  0.9978938       -19.70287
1.032                  0.9978083       -19.80675
1.036                  0.9977187       -19.91087
1.04                   0.9976255       -20.01518
1.044                  0.9975285       -20.11976
1.048                  0.9974281       -20.22451
1.052                  0.9973241        -20.3295
1.056                  0.9972168       -20.43469
1.06                   0.9971062       -20.54009
1.064                  0.9969926       -20.64569
1.068                  0.9968761       -20.75147
1.072                  0.9967567       -20.85745
1.076                  0.9966347       -20.96362
1.08                   0.9965103          -21.07
1.084                  0.9963836       -21.17655
1.088                  0.9962546       -21.28329
1.092                  0.9961237        -21.3902
1.096                   0.995991       -21.49733
1.1                    0.9958567       -21.60462
1.104                  0.9957209        -21.7121
1.108                  0.9955839       -21.81977
1.112                  0.9954458       -21.92766
1.116                  0.9953069       -22.03571
1.12                   0.9951672       -22.14395
1.124                   0.995027       -22.25242
1.128                  0.9948864       -22.36108
1.132                  0.9947458       -22.46997
1.136                  0.9946052       -22.57908
1.14                   0.9944649       -22.68841
1.144                   0.994325       -22.79798
1.148                  0.9941855        -22.9078
1.152                   0.994047       -23.01787
1.156                  0.9939094        -23.1282
1.16                   0.9937729        -23.2388
1.164                  0.9936376       -23.34969
1.168                  0.9935037       -23.46087
1.172                  0.9933714       -23.57236
1.176                  0.9932407       -23.68417
1.18                    0.993112        -23.7963
1.184                  0.9929853       -23.90879
1.188                  0.9928606       -24.02163
1.192                  0.9927381       -24.13486
1.196                  0.9926179       -24.24847
1.2                       0.9925       -24.36249
1.204                  0.9923848       -24.47693
1.208                   0.992272        -24.5918
1.212                  0.9921618       -24.70714
1.216                  0.9920544       -24.82294
1.22                   0.9919495       -24.93924
1.224                  0.9918476       -25.05604
1.228                  0.9917482       -25.17336
1.232                  0.9916518       -25.29123
1.236                  0.9915579       -25.40967
1.24                    0.991467       -25.52868
1.244                  0.9913787       -25.64829
1.248                  0.9912932       -25.76852
1.252                  0.9912102       -25.88939
1.256                  0.9911298       -26.01092
1.26                   0.9910519       -26.13311
1.264                  0.9909764       -26.25601
1.268                  0.9909032       -26.37962
1.272                  0.9908323       -26.50395
1.276                  0.9907633       -26.62904
1.28                   0.9906963        -26.7549
1.284                  0.9906312       -26.88154
1.288                  0.9905676         -27.009
1.292                  0.9905054       -27.13728
1.296                  0.9904445       -27.26639
1.3                    0.9903848       -27.39637
1.304                  0.9903259       -27.52722
1.308                  0.9902677       -27.65896
1.312                  0.9902099       -27.79161
1.316                  0.9901523       -27.92518
1.32                   0.9900948        -28.0597
1.324                  0.9900369       -28.19517
1.328                  0.9899785        -28.3316
1.332                  0.9899194       -28.46902
1.336                  0.9898591       -28.60743
1.34                   0.9897976       -28.74686
1.344                  0.9897343        -28.8873
1.348                  0.9896693       -29.02878
1.352                   0.989602        -29.1713
1.356                  0.9895322       -29.31487
1.36                   0.9894595       -29.45951
1.364                  0.9893839       -29.60522
1.368                  0.9893047       -29.75201
1.372                  0.9892218       -29.89989
1.376                   0.989135       -30.04887
1.38                   0.9890437       -30.19895
1.384                  0.9889479       -30.35014
1.388                  0.9888471       -30.50245
1.392                  0.9887409       -30.65588
1.396                  0.9886292       -30.81042
1.4                    0.9885116        -30.9661
1.404                  0.9883878       -31.12291
1.408                  0.9882576       -31.28085
1.412                  0.9881206       -31.43993
1.416                  0.9879765       -31.60014
1.42                    0.987825       -31.76149
1.424                  0.9876659       -31.92398
1.428                  0.9874988       -32.08761
1.432                  0.9873238       -32.25236
1.436                  0.9871402       -32.41826
1.44                    0.986948       -32.58529
1.444                  0.9867468       -32.75344
1.448                  0.9865365       -32.92272
1.452                  0.9863168       -33.09314
1.456                  0.9860877       -33.26467
1.46                   0.9858487       -33.43733
1.464                  0.9855997        -33.6111
1.468                  0.9853406       -33.78598
1.472                  0.9850712       -33.96198
1.476                  0.9847914       -34.13907
1.48                   0.9845008       -34.31727
1.484                  0.9841996       -34.49656
1.488                  0.9838875       -34.67693
1.492                  0.9835644       -34.85841
1.496                  0.9832303       -35.04096
1.5                    0.9828851       -35.22458
1.504                  0.9825285       -35.40929
1.508                  0.9821608       -35.59506
1.512                  0.9817817        -35.7819
1.516                  0.9813911        -35.9698
1.52                   0.9809893       -36.15876
1.524                   0.980576       -36.34878
1.528                  0.9801513       -36.53986
1.532                  0.9797154         -36.732
1.536                  0.9792681       -36.92518
1.54                   0.9788095       -37.11941
1.544                  0.9783397        -37.3147
1.548                  0.9778586       -37.51104
1.552                  0.9773664       -37.70843
1.556                  0.9768632       -37.90688
1.56                   0.9763491       -38.10639
1.564                   0.975824       -38.30695
1.568                  0.9752883       -38.50859
1.572                  0.9747419       -38.71129
1.576                  0.9741849       -38.91508
1.58                   0.9736178       -39.11994
1.584                  0.9730403       -39.32589
1.588                  0.9724526       -39.53295
1.592                  0.9718551       -39.74112
1.596                  0.9712477       -39.95041
1.6                    0.9706307       -40.16083
1.604                  0.9700042       -40.37241
1.608                  0.9693683       -40.58514
1.612                  0.9687234       -40.79905
1.616                  0.9680692       -41.01416
1.62                   0.9674063       -41.23048
1.624                  0.9667346       -41.44803
1.628                  0.9660542       -41.66684
1.632                  0.9653655       -41.88692
1.636                  0.9646686       -42.10829
1.64                   0.9639634       -42.33099
1.644                  0.9632502       -42.55505
1.648                   0.962529       -42.78048
1.652                  0.9618001       -43.00732
1.656                  0.9610633       -43.23558
1.66                   0.9603192       -43.46531
1.664                  0.9595673       -43.69655
1.668                   0.958808       -43.92931
1.672                  0.9580413       -44.16364
1.676                  0.9572672       -44.39958
1.68                   0.9564858       -44.63716
1.684                  0.9556969       -44.87642
1.688                  0.9549007       -45.11739
1.692                  0.9540971       -45.36014
1.696                  0.9532861       -45.60467
1.7                    0.9524675       -45.85107
1.704                  0.9516414       -46.09935
1.708                  0.9508076       -46.34957
1.712                  0.9499658       -46.60179
1.716                  0.9491162       -46.85602
1.72                   0.9482583       -47.11234
1.724                  0.9473922        -47.3708
1.728                  0.9465174       -47.63144
1.732                  0.9456337       -47.89431
1.736                  0.9447408       -48.15947
1.74                   0.9438385       -48.42696
1.744                  0.9429267       -48.69685
1.748                  0.9420046       -48.96919
1.752                  0.9410719       -49.24403
1.756                  0.9401284       -49.52143
1.76                   0.9391735       -49.80145
1.764                  0.9382069       -50.08413
1.768                   0.937228       -50.36955
1.772                  0.9362363       -50.65774
1.776                  0.9352312       -50.94879
1.78                   0.9342121       -51.24273
1.784                  0.9331786       -51.53963
1.788                  0.9321297       -51.83956
1.792                  0.9310652       -52.14255
1.796                   0.929984       -52.44867
1.8                    0.9288857         -52.758
1.804                  0.9277694       -53.07057
1.808                  0.9266343       -53.38645
1.812                  0.9254799       -53.70569
1.816                  0.9243048       -54.02836
1.82                   0.9231088        -54.3545
1.824                  0.9218907       -54.68419
1.828                  0.9206497       -55.01747
1.832                  0.9193849        -55.3544
1.836                  0.9180952       -55.69504
1.84                   0.9167799       -56.03944
1.844                  0.9154381       -56.38764
1.848                  0.9140684       -56.73974
1.852                  0.9126701       -57.09574
1.856                  0.9112423       -57.45574
1.86                   0.9097836       -57.81974
1.864                  0.9082932       -58.18785
1.868                  0.9067699       -58.56008
1.872                  0.9052127       -58.93649
1.876                  0.9036207       -59.31714
1.88                   0.9019924       -59.70209
1.884                   0.900327       -60.09134
1.888                  0.8986232       -60.48498
1.892                  0.8968801       -60.88305
1.896                  0.8950965       -61.28559
1.9                     0.893271       -61.69264
1.904                  0.8914028       -62.10427
1.908                  0.8894907       -62.52049
1.912                  0.8875336       -62.94136
1.916                  0.8855302       -63.36693
1.92                   0.8834794       -63.79723
1.924                  0.8813802       -64.23231
1.928                  0.8792315       -64.67221
1.932                  0.8770321       -65.11697
1.936                   0.874781       -65.56663
1.94                   0.8724769       -66.02122
1.944                  0.8701192       -66.48078
1.948                  0.8677062       -66.94536
1.952                  0.8652372         -67.415
1.956                  0.8627113       -67.88973
1.96                   0.8601272       -68.36959
1.964                   0.857484        -68.8546
1.968                  0.8547808       -69.34484
1.972                  0.8520166        -69.8403
1.976                  0.8491904       -70.34104
1.98                   0.8463015        -70.8471
1.984                  0.8433486       -71.35852
1.988                  0.8403312       -71.87532
1.992                  0.8372484       -72.39755
1.996                  0.8340995       -72.92526
2                      0.8308834       -73.45845
2.004                  0.8275998       -73.99719
2.008                  0.8242476       -74.54151
2.012                  0.8208263       -75.09146
2.016                  0.8173353       -75.64706
2.02                   0.8137739       -76.20839
2.024                  0.8101416       -76.77545
2.028                  0.8064378       -77.34829
2.032                  0.8026622       -77.92699
2.036                  0.7988142       -78.51156
2.04                   0.7948935       -79.10207
2.044                  0.7908995       -79.69856
2.048                  0.7868321       -80.30107
2.052                   0.782691       -80.90967
2.056                  0.7784759       -81.52441
2.06                   0.7741866       -82.14536
2.064                  0.7698231       -82.77254
2.068                  0.7653853       -83.40606
2.072                  0.7608731       -84.04595
2.076                  0.7562863       -84.69229
2.08                   0.7516254       -85.34516
2.084                  0.7468902        -86.0046
2.088                  0.7420809       -86.67074
2.092                  0.7371978       -87.34359
2.096                  0.7322411       -88.02331
2.1                    0.7272113       -88.70993
2.104                  0.7221086       -89.40357
2.108                  0.7169335       -90.10432
2.112                  0.7116864       -90.81226
2.116                  0.7063679       -91.52755
2.12                   0.7009787       -92.25024
2.124                  0.6955195       -92.98049
2.128                   0.689991        -93.7184
2.132                  0.6843939       -94.46412
2.136                   0.678729       -95.21776
2.14                   0.6729975       -95.97949
2.144                     0.6672       -96.74942
2.148                   0.661338       -97.52776
2.152                  0.6554121       -98.31463
2.156                  0.6494238       -99.11022
2.16                   0.6433744       -99.91472
2.164                   0.637265       -100.7283
2.168                  0.6310972       -101.5512
2.172                  0.6248722       -102.3836
2.176                  0.6185917       -103.2258
2.18                   0.6122573       -104.0779
2.184                  0.6058706       -104.9402
2.188                  0.5994335        -105.813
2.192                  0.5929477       -106.6966
2.196                  0.5864151       -107.5911
2.2                    0.5798376        -108.497
2.204                  0.5732175       -109.4146
2.208                  0.5665569       -110.3442
2.212                  0.5598579       -111.2861
2.216                   0.553123       -112.2407
2.22                   0.5463545       -113.2084
2.224                  0.5395549       -114.1897
2.228                  0.5327271       -115.1848
2.232                  0.5258735       -116.1943
2.236                  0.5189971       -117.2187
2.24                   0.5121007       -118.2585
2.244                  0.5051875       -119.3141
2.248                  0.4982605       -120.3861
2.252                  0.4913232       -121.4751
2.256                  0.4843788       -122.5817
2.26                    0.477431       -123.7065
2.264                  0.4704834       -124.8502
2.268                  0.4635397       -126.0134
2.272                  0.4566039       -127.1969
2.276                  0.4496802       -128.4015
2.28                   0.4427728       -129.6278
2.284                  0.4358862       -130.8768
2.288                  0.4290251       -132.1492
2.292                  0.4221939       -133.4461
2.296                  0.4153979       -134.7681
2.3                     0.408642       -136.1164
2.304                  0.4019318       -137.4918
2.308                  0.3952729       -138.8954
2.312                  0.3886708       -140.3282
2.316                  0.3821316       -141.7913
2.32                   0.3756617       -143.2856
2.324                  0.3692674       -144.8124
2.328                  0.3629554       -146.3726
2.332                  0.3567328       -147.9674
2.336                  0.3506066       -149.5979
2.34                   0.3445842        -151.265
2.344                  0.3386735       -152.9698
2.348                  0.3328822       -154.7134
2.352                  0.3272187       -156.4965