! TOUCHSTONE file generated by CST MICROWAVE STUDIO
! Date and time: Sat May 14 11:21:43 2022
! Project name: AppElm_antenne_dipole_Alumina.cst
! Parameters = {L=33; e=0.035; f=2.45e+09; h=1.6; i=0.8; l1=2; lambda=122.449; ls=30; wl=1.7; ws=92}
! Header version: 2018
! Port assignment regex: !\s*Touchstone port\s*([0-9]+)\s*=\s*(CST MWS port|CST DS port)\s*([0-9]+|Zmin|Zmax)\s*\(\"(.*)\"\)(\s*mode\s*([0-9]+))?.*
! Touchstone port assignment:
! Touchstone port 1 = CST MWS port 1 ("")
# GHz S MA R 50
0                              1              -0
0.004                  0.9999986      -0.0694991
0.008                  0.9999948      -0.1389914
0.012                  0.9999883      -0.2084699
0.016                  0.9999791       -0.277928
0.02                   0.9999677      -0.3473588
0.024                  0.9999534      -0.4167558
0.028                  0.9999367      -0.4861123
0.032                  0.9999175      -0.5554218
0.036                  0.9998961      -0.6246783
0.04                   0.9998723      -0.6938752
0.044                  0.9998462      -0.7630067
0.048                  0.9998179       -0.832067
0.052                  0.9997873      -0.9010507
0.056                  0.9997549      -0.9699519
0.06                   0.9997204       -1.038766
0.064                  0.9996839       -1.107488
0.068                  0.9996458       -1.176112
0.072                  0.9996058       -1.244636
0.076                  0.9995644       -1.313054
0.08                   0.9995214       -1.381363
0.084                  0.9994772        -1.44956
0.088                  0.9994315        -1.51764
0.092                  0.9993849       -1.585603
0.096                  0.9993371       -1.653445
0.1                    0.9992885       -1.721163
0.104                  0.9992391       -1.788757
0.108                  0.9991891       -1.856225
0.112                  0.9991386       -1.923566
0.116                  0.9990876        -1.99078
0.12                   0.9990365       -2.057866
0.124                  0.9989852       -2.124824
0.128                  0.9989339       -2.191655
0.132                  0.9988828       -2.258361
0.136                  0.9988319       -2.324942
0.14                   0.9987815       -2.391399
0.144                  0.9987318       -2.457736
0.148                  0.9986826       -2.523956
0.152                  0.9986342       -2.590059
0.156                  0.9985868       -2.656052
0.16                   0.9985405       -2.721935
0.164                  0.9984954       -2.787714
0.168                  0.9984514       -2.853393
0.172                   0.998409       -2.918977
0.176                  0.9983681       -2.984471
0.18                   0.9983288        -3.04988
0.184                  0.9982912        -3.11521
0.188                  0.9982555       -3.180468
0.192                  0.9982218       -3.245658
0.196                    0.99819       -3.310788
0.2                    0.9981603       -3.375865
0.204                  0.9981329       -3.440895
0.208                  0.9981075       -3.505887
0.212                  0.9980848       -3.570847
0.216                  0.9980643       -3.635783
0.22                   0.9980461       -3.700704
0.224                  0.9980306       -3.765617
0.228                  0.9980176        -3.83053
0.232                  0.9980071       -3.895453
0.236                  0.9979992       -3.960391
0.24                   0.9979939       -4.025357
0.244                  0.9979914       -4.090355
0.248                  0.9979914       -4.155397
0.252                  0.9979939       -4.220491
0.256                  0.9979993       -4.285643
0.26                   0.9980072       -4.350866
0.264                  0.9980177       -4.416166
0.268                  0.9980307       -4.481551
0.272                  0.9980464        -4.54703
0.276                  0.9980645       -4.612613
0.28                   0.9980852       -4.678306
0.284                  0.9981082       -4.744118
0.288                  0.9981336       -4.810056
0.292                  0.9981611        -4.87613
0.296                   0.998191       -4.942345
0.3                    0.9982229       -5.008711
0.304                   0.998257       -5.075232
0.308                  0.9982929       -5.141918
0.312                  0.9983308       -5.208774
0.316                  0.9983704       -5.275806
0.32                   0.9984117       -5.343021
0.324                  0.9984545       -5.410424
0.328                  0.9984988       -5.478021
0.332                  0.9985443       -5.545817
0.336                  0.9985911       -5.613817
0.34                    0.998639       -5.682024
0.344                  0.9986879       -5.750444
0.348                  0.9987375       -5.819081
0.352                  0.9987878       -5.887935
0.356                  0.9988387       -5.957012
0.36                     0.99889       -6.026314
0.364                  0.9989415       -6.095843
0.368                  0.9989934       -6.165599
0.372                  0.9990451       -6.235587
0.376                  0.9990966       -6.305805
0.38                   0.9991479       -6.376254
0.384                  0.9991988       -6.446935
0.388                  0.9992492       -6.517847
0.392                  0.9992988        -6.58899
0.396                  0.9993476       -6.660363
0.4                    0.9993954       -6.731965
0.404                  0.9994422       -6.803792
0.408                  0.9994877       -6.875844
0.412                   0.999532       -6.948118
0.416                  0.9995746       -7.020611
0.42                   0.9996156        -7.09332
0.424                  0.9996551        -7.16624
0.428                  0.9996926       -7.239369
0.432                  0.9997282       -7.312701
0.436                  0.9997618       -7.386234
0.44                   0.9997932       -7.459959
0.444                  0.9998225       -7.533875
0.448                  0.9998493       -7.607974
0.452                  0.9998738       -7.682254
0.456                  0.9998959       -7.756704
0.46                   0.9999153        -7.83132
0.464                  0.9999321       -7.906098
0.468                  0.9999462        -7.98103
0.472                  0.9999578       -8.056108
0.476                  0.9999665       -8.131326
0.48                   0.9999723       -8.206679
0.484                  0.9999753       -8.282158
0.488                  0.9999755        -8.35776
0.492                  0.9999728       -8.433472
0.496                  0.9999672       -8.509289
0.5                    0.9999588       -8.585204
0.504                  0.9999474       -8.661213
0.508                  0.9999333       -8.737303
0.512                  0.9999162       -8.813473
0.516                  0.9998963       -8.889711
0.52                   0.9998736       -8.966014
0.524                  0.9998481       -9.042374
0.528                    0.99982       -9.118781
0.532                  0.9997892       -9.195234
0.536                  0.9997559       -9.271724
0.54                     0.99972       -9.348243
0.544                  0.9996818       -9.424789
0.548                   0.999641       -9.501353
0.552                  0.9995981       -9.577931
0.556                   0.999553       -9.654517
0.56                   0.9995058       -9.731108
0.564                  0.9994567       -9.807697
0.568                  0.9994056       -9.884281
0.572                  0.9993528       -9.960857
0.576                  0.9992984       -10.03742
0.58                   0.9992425       -10.11396
0.584                  0.9991851       -10.19049
0.588                  0.9991266         -10.267
0.592                  0.9990668       -10.34348
0.596                  0.9990063       -10.41993
0.6                    0.9989447       -10.49636
0.604                  0.9988825       -10.57276
0.608                  0.9988198       -10.64914
0.612                  0.9987566       -10.72548
0.616                  0.9986932        -10.8018
0.62                   0.9986297       -10.87809
0.624                  0.9985661       -10.95435
0.628                  0.9985027       -11.03059
0.632                  0.9984397       -11.10681
0.636                  0.9983773       -11.18301
0.64                   0.9983153       -11.25919
0.644                  0.9982541       -11.33536
0.648                  0.9981939       -11.41152
0.652                  0.9981347       -11.48768
0.656                  0.9980767       -11.56384
0.66                     0.99802          -11.64
0.664                  0.9979647       -11.71618
0.668                   0.997911       -11.79237
0.672                   0.997859       -11.86859
0.676                  0.9978089       -11.94483
0.68                   0.9977607       -12.02112
0.684                  0.9977145       -12.09745
0.688                  0.9976704       -12.17383
0.692                  0.9976287       -12.25028
0.696                  0.9975892       -12.32679
0.7                    0.9975521       -12.40339
0.704                  0.9975175       -12.48007
0.708                  0.9974856       -12.55685
0.712                  0.9974562       -12.63374
0.716                  0.9974296       -12.71075
0.72                   0.9974056       -12.78788
0.724                  0.9973845       -12.86515
0.728                  0.9973663       -12.94256
0.732                  0.9973509       -13.02014
0.736                  0.9973382       -13.09789
0.74                   0.9973285       -13.17581
0.744                  0.9973217       -13.25392
0.748                  0.9973178       -13.33224
0.752                  0.9973167       -13.41077
0.756                  0.9973185       -13.48952
0.76                   0.9973231        -13.5685
0.764                  0.9973305       -13.64773
0.768                  0.9973406       -13.72721
0.772                  0.9973535       -13.80696
0.776                  0.9973687       -13.88698
0.78                   0.9973867       -13.96729
0.784                  0.9974073        -14.0479
0.788                    0.99743       -14.12881
0.792                  0.9974552       -14.21004
0.796                  0.9974826       -14.29159
0.8                     0.997512       -14.37348
0.804                  0.9975434       -14.45571
0.808                  0.9975768       -14.53829
0.812                  0.9976118       -14.62124
0.816                  0.9976485       -14.70455
0.82                   0.9976866       -14.78824
0.824                   0.997726       -14.87231
0.828                  0.9977667       -14.95678
0.832                  0.9978084       -15.04163
0.836                  0.9978509        -15.1269
0.84                   0.9978943       -15.21257
0.844                  0.9979382       -15.29866
0.848                  0.9979824       -15.38516
0.852                  0.9980268       -15.47209
0.856                  0.9980713       -15.55945
0.86                   0.9981158       -15.64723
0.864                  0.9981599       -15.73545
0.868                  0.9982035        -15.8241
0.872                  0.9982465        -15.9132
0.876                  0.9982887       -16.00273
0.88                   0.9983298       -16.09271
0.884                  0.9983699       -16.18312
0.888                  0.9984085       -16.27398
0.892                  0.9984456       -16.36528
0.896                  0.9984812       -16.45702
0.9                    0.9985147        -16.5492
0.904                  0.9985464       -16.64182
0.908                  0.9985758       -16.73487
0.912                  0.9986029       -16.82835
0.916                  0.9986275       -16.92227
0.92                   0.9986494       -17.01661
0.924                  0.9986685       -17.11138
0.928                  0.9986848       -17.20656
0.932                  0.9986979       -17.30216
0.936                  0.9987079       -17.39817
0.94                   0.9987145       -17.49458
0.944                  0.9987177       -17.59139
0.948                  0.9987174        -17.6886
0.952                  0.9987135       -17.78619
0.956                  0.9987057       -17.88416
0.96                   0.9986942        -17.9825
0.964                  0.9986789       -18.08122
0.968                  0.9986595       -18.18029
0.972                   0.998636       -18.27972
0.976                  0.9986085       -18.37949
0.98                   0.9985768        -18.4796
0.984                  0.9985411       -18.58004
0.988                  0.9985011        -18.6808
0.992                  0.9984569       -18.78188
0.996                  0.9984085       -18.88327
1                      0.9983558       -18.98496
1.004                  0.9982989       -19.08695
1.008                   0.998238       -19.18921
1.012                  0.9981728       -19.29175
1.016                  0.9981034       -19.39456
1.02                   0.9980298       -19.49764
1.024                  0.9979524       -19.60099
1.028                   0.997871       -19.70459
1.032                  0.9977855       -19.80841
1.036                  0.9976965       -19.91248
1.04                   0.9976034       -20.01679
1.044                   0.997507       -20.12132
1.048                  0.9974069       -20.22604
1.052                  0.9973034         -20.331
1.056                  0.9971965       -20.43616
1.06                   0.9970865       -20.54154
1.064                  0.9969735       -20.64713
1.068                  0.9968576       -20.75289
1.072                  0.9967389        -20.8589
1.076                  0.9966176       -20.96506
1.08                   0.9964938       -21.07142
1.084                  0.9963678       -21.17795
1.088                  0.9962396       -21.28469
1.092                  0.9961094       -21.39162
1.096                  0.9959775       -21.49875
1.1                    0.9958439       -21.60606
1.104                   0.995709       -21.71357
1.108                  0.9955727       -21.82127
1.112                  0.9954354       -21.92913
1.116                  0.9952972       -22.03724
1.12                   0.9951583       -22.14551
1.124                  0.9950189       -22.25403
1.128                  0.9948791       -22.36273
1.132                  0.9947392       -22.47166
1.136                  0.9945994       -22.58082
1.14                   0.9944596       -22.69021
1.144                  0.9943205       -22.79984
1.148                  0.9941817       -22.90971
1.152                  0.9940436       -23.01985
1.156                  0.9939066       -23.13025
1.16                   0.9937705       -23.24093
1.164                  0.9936357       -23.35189
1.168                  0.9935023       -23.46315
1.172                  0.9933703       -23.57473
1.176                    0.99324       -23.68663
1.18                   0.9931114       -23.79886
1.184                  0.9929849       -23.91144
1.188                  0.9928604       -24.02438
1.192                  0.9927379        -24.1377
1.196                  0.9926176       -24.25142
1.2                    0.9924997       -24.36555
1.204                  0.9923842       -24.48009
1.208                  0.9922711       -24.59508
1.212                  0.9921608       -24.71053
1.216                  0.9920528       -24.82645
1.22                   0.9919475       -24.94286
1.224                  0.9918448       -25.05978
1.228                   0.991745       -25.17722
1.232                  0.9916476       -25.29522
1.236                   0.991553       -25.41377
1.24                    0.991461        -25.5329
1.244                  0.9913717       -25.65264
1.248                  0.9912851       -25.77299
1.252                  0.9912008       -25.89398
1.256                  0.9911191       -26.01563
1.26                   0.9910398       -26.13795
1.264                  0.9909628       -26.26096
1.268                   0.990888       -26.38469
1.272                  0.9908153       -26.50914
1.276                  0.9907445       -26.63435
1.28                   0.9906758       -26.76032
1.284                  0.9906086       -26.88708
1.288                  0.9905429       -27.01465
1.292                  0.9904786       -27.14303
1.296                  0.9904156       -27.27226
1.3                    0.9903534       -27.40233
1.304                  0.9902921       -27.53329
1.308                  0.9902314       -27.66513
1.312                  0.9901711       -27.79787
1.316                  0.9901109       -27.93154
1.32                   0.9900507       -28.06614
1.324                  0.9899899       -28.20169
1.328                  0.9899289        -28.3382
1.332                  0.9898668        -28.4757
1.336                  0.9898036       -28.61419
1.34                    0.989739       -28.75367
1.344                  0.9896727       -28.89418
1.348                  0.9896045       -29.03571
1.352                   0.989534       -29.17829
1.356                  0.9894611       -29.32191
1.36                   0.9893852       -29.46658
1.364                  0.9893063       -29.61234
1.368                  0.9892238       -29.75916
1.372                  0.9891376       -29.90707
1.376                  0.9890473       -30.05607
1.38                   0.9889528       -30.20617
1.384                  0.9888535       -30.35738
1.388                  0.9887492       -30.50969
1.392                  0.9886398       -30.66312
1.396                  0.9885245       -30.81767
1.4                    0.9884036       -30.97334
1.404                  0.9882765       -31.13014
1.408                  0.9881427       -31.28806
1.412                  0.9880024       -31.44711
1.416                  0.9878548       -31.60731
1.42                   0.9877001       -31.76863
1.424                  0.9875376       -31.93107
1.428                  0.9873673       -32.09466
1.432                  0.9871889       -32.25938
1.436                  0.9870021       -32.42522
1.44                   0.9868066        -32.5922
1.444                  0.9866024        -32.7603
1.448                  0.9863891       -32.92953
1.452                  0.9861663       -33.09988
1.456                   0.985934       -33.27135
1.46                   0.9856921       -33.44394
1.464                  0.9854401       -33.61765
1.468                  0.9851783       -33.79245
1.472                  0.9849061       -33.96837
1.476                  0.9846232       -34.14539
1.48                   0.9843301       -34.32351
1.484                  0.9840262       -34.50272
1.488                  0.9837115       -34.68302
1.492                  0.9833859       -34.86441
1.496                  0.9830493       -35.04688
1.5                    0.9827016       -35.23042
1.504                  0.9823427       -35.41504
1.508                  0.9819727       -35.60073
1.512                  0.9815913       -35.78749
1.516                  0.9811987       -35.97531
1.52                   0.9807947       -36.16419
1.524                  0.9803795       -36.35413
1.528                  0.9799529       -36.54513
1.532                  0.9795148       -36.73719
1.536                  0.9790655       -36.93029
1.54                    0.978605       -37.12446
1.544                  0.9781334       -37.31967
1.548                  0.9776506       -37.51595
1.552                  0.9771566       -37.71328
1.556                  0.9766517       -37.91166
1.56                   0.9761357       -38.11111
1.564                   0.975609       -38.31163
1.568                  0.9750717       -38.51321
1.572                  0.9745235       -38.71587
1.576                  0.9739651        -38.9196
1.58                   0.9733962       -39.12443
1.584                   0.972817       -39.33035
1.588                  0.9722278       -39.53738
1.592                  0.9716285       -39.74553
1.596                  0.9710195        -39.9548
1.6                    0.9704008       -40.16521
1.604                  0.9697725       -40.37678
1.608                  0.9691349        -40.5895
1.612                   0.968488       -40.80342
1.616                  0.9678321       -41.01853
1.62                   0.9671671       -41.23487
1.624                  0.9664934       -41.45244
1.628                  0.9658111       -41.67126
1.632                  0.9651201       -41.89138
1.636                  0.9644209       -42.11279
1.64                   0.9637134       -42.33554
1.644                  0.9629977       -42.55964
1.648                  0.9622741       -42.78511
1.652                  0.9615424         -43.012
1.656                   0.960803       -43.24033
1.66                   0.9600558       -43.47013
1.664                  0.9593009       -43.70143
1.668                  0.9585384       -43.93427
1.672                  0.9577683       -44.16868
1.676                  0.9569908       -44.40469
1.68                   0.9562057       -44.64235
1.684                   0.955413        -44.8817
1.688                  0.9546128       -45.12276
1.692                   0.953805        -45.3656
1.696                  0.9529896       -45.61024
1.7                    0.9521664       -45.85672
1.704                  0.9513354       -46.10511
1.708                  0.9504966       -46.35542
1.712                  0.9496496       -46.60774
1.716                  0.9487946       -46.86208
1.72                    0.947931        -47.1185
1.724                   0.947059       -47.37704
1.728                   0.946178       -47.63777
1.732                  0.9452879       -47.90075
1.736                  0.9443885         -48.166
1.74                   0.9434795       -48.43358
1.744                  0.9425604       -48.70356
1.748                  0.9416309       -48.97597
1.752                  0.9406907       -49.25089
1.756                  0.9397393       -49.52836
1.76                   0.9387764       -49.80843
1.764                  0.9378014       -50.09118
1.768                  0.9368138       -50.37664
1.772                  0.9358133       -50.66488
1.776                   0.934799       -50.95596
1.78                   0.9337705       -51.24992
1.784                  0.9327273       -51.54684
1.788                  0.9316685       -51.84677
1.792                  0.9305939       -52.14974
1.796                  0.9295022       -52.45586
1.8                    0.9283932       -52.76514
1.804                  0.9272661       -53.07766
1.808                  0.9261199       -53.39348
1.812                   0.924954       -53.71264
1.816                  0.9237675       -54.03522
1.82                   0.9225595       -54.36127
1.824                  0.9213293       -54.69083
1.828                  0.9200761       -55.02396
1.832                  0.9187987       -55.36073
1.836                  0.9174965       -55.70118
1.84                   0.9161683       -56.04539
1.844                  0.9148132       -56.39338
1.848                  0.9134302       -56.74523
1.852                  0.9120186       -57.10098
1.856                   0.910577       -57.46068
1.86                   0.9091046       -57.82439
1.864                  0.9076003       -58.19215
1.868                  0.9060629       -58.56404
1.872                  0.9044916       -58.94007
1.876                   0.902885       -59.32032
1.88                   0.9012424       -59.70482
1.884                  0.8995625       -60.09363
1.888                   0.897844       -60.48679
1.892                  0.8960862       -60.88434
1.896                  0.8942877       -61.28634
1.9                    0.8924474       -61.69285
1.904                  0.8905643       -62.10386
1.908                  0.8886372       -62.51946
1.912                   0.886665       -62.93969
1.916                  0.8846466       -63.36457
1.92                   0.8825807       -63.79416
1.924                  0.8804667       -64.22849
1.928                   0.878303       -64.66761
1.932                  0.8760885       -65.11157
1.936                  0.8738226       -65.56037
1.94                   0.8715037       -66.01409
1.944                   0.869131       -66.47275
1.948                  0.8667032       -66.93641
1.952                  0.8642196       -67.40507
1.956                  0.8616792       -67.87878
1.96                   0.8590806       -68.35761
1.964                  0.8564232       -68.84154
1.968                  0.8537057       -69.33066
1.972                  0.8509275       -69.82498
1.976                  0.8480874       -70.32454
1.98                   0.8451847       -70.82937
1.984                  0.8422183       -71.33953
1.988                  0.8391875       -71.85504
1.992                  0.8360916       -72.37594
1.996                  0.8329296       -72.90225
2                      0.8297009       -73.43405
2.004                  0.8264046       -73.97135
2.008                  0.8230402       -74.51419
2.012                  0.8196068       -75.06261
2.016                   0.816104       -75.61667
2.02                    0.812531       -76.17637
2.024                  0.8088874        -76.7418
2.028                  0.8051727       -77.31297
2.032                  0.8013863       -77.88993
2.036                  0.7975279       -78.47275
2.04                    0.793597       -79.06144
2.044                  0.7895932       -79.65608
2.048                  0.7855163       -80.25671
2.052                  0.7813659       -80.86338
2.056                   0.777142       -81.47616
2.06                   0.7728441       -82.09507
2.064                  0.7684724        -82.7202
2.068                  0.7640266       -83.35161
2.072                  0.7595068       -83.98934
2.076                  0.7549128       -84.63348
2.08                   0.7502448       -85.28411
2.084                  0.7455031       -85.94127
2.088                  0.7406876       -86.60506
2.092                  0.7357986       -87.27555
2.096                  0.7308364       -87.95282
2.1                    0.7258013       -88.63697
2.104                  0.7206936       -89.32808
2.108                  0.7155139       -90.02625
2.112                  0.7102626       -90.73159
2.116                  0.7049403       -91.44417
2.12                   0.6995476       -92.16415
2.124                   0.694085       -92.89161
2.128                  0.6885535       -93.62669
2.132                  0.6829537        -94.3695
2.136                  0.6772867       -95.12019
2.14                    0.671553        -95.8789
2.144                  0.6657539       -96.64579
2.148                  0.6598902       -97.42099
2.152                  0.6539633       -98.20469
2.156                  0.6479741       -98.99704
2.16                   0.6419239       -99.79825
2.164                  0.6358142       -100.6085
2.168                  0.6296461       -101.4279
2.172                  0.6234212       -102.2569
2.176                  0.6171408       -103.0955
2.18                   0.6108068       -103.9439
2.184                  0.6044207       -104.8026
2.188                  0.5979842       -105.6716
2.192                  0.5914991       -106.5513
2.196                  0.5849675        -107.442
2.2                    0.5783912        -108.344
2.204                  0.5717721       -109.2575
2.208                  0.5651125        -110.183
2.212                  0.5584149       -111.1207
2.216                  0.5516811        -112.071
2.22                   0.5449137       -113.0344
2.224                  0.5381154       -114.0112
2.228                  0.5312885       -115.0018
2.232                  0.5244359       -116.0068
2.236                  0.5175604       -117.0265
2.24                   0.5106646       -118.0614
2.244                   0.503752       -119.1122
2.248                  0.4968253       -120.1793
2.252                   0.489888       -121.2633
2.256                  0.4829433       -122.3648
2.26                   0.4759948       -123.4844
2.264                  0.4690461       -124.6229
2.268                  0.4621011       -125.7808
2.272                  0.4551635       -126.9589
2.276                  0.4482376       -128.1579
2.28                   0.4413274       -129.3787
2.284                  0.4344373        -130.622
2.288                  0.4275721       -131.8888
2.292                  0.4207362       -133.1798
2.296                  0.4139348       -134.4961
2.3                    0.4071728       -135.8385
2.304                  0.4004557        -137.208
2.308                  0.3937889       -138.6057
2.312                  0.3871782       -140.0325
2.316                  0.3806294       -141.4896
2.32                   0.3741489        -142.978
2.324                  0.3677429       -144.4988
2.328                  0.3614183       -146.0532
2.332                  0.3551818       -147.6421
2.336                  0.3490407       -149.2668
2.34                   0.3430022       -150.9283
2.344                  0.3370741       -152.6277
2.348                  0.3312643       -154.3659
2.352                  0.3255808        -156.144