! TOUCHSTONE file generated by CST MICROWAVE STUDIO
! Date and time: Sat May 14 11:21:39 2022
! Project name: AppElm_antenne_dipole_Alumina.cst
! Parameters = {L=33; e=0.035; f=2.45e+09; h=1.6; i=0.8; l1=2; lambda=122.449; ls=30; wl=1.7; ws=76}
! Header version: 2018
! Port assignment regex: !\s*Touchstone port\s*([0-9]+)\s*=\s*(CST MWS port|CST DS port)\s*([0-9]+|Zmin|Zmax)\s*\(\"(.*)\"\)(\s*mode\s*([0-9]+))?.*
! Touchstone port assignment:
! Touchstone port 1 = CST MWS port 1 ("")
# GHz S MA R 50
0                              1              -0
0.004                  0.9999985     -0.06975947
0.008                  0.9999943      -0.1395114
0.012                  0.9999871      -0.2092482
0.016                  0.9999772      -0.2789624
0.02                   0.9999645      -0.3486464
0.024                  0.9999489       -0.418293
0.028                  0.9999307      -0.4878949
0.032                  0.9999097       -0.557445
0.036                  0.9998861      -0.6269363
0.04                     0.99986      -0.6963619
0.044                  0.9998314      -0.7657153
0.048                  0.9998004      -0.8349898
0.052                  0.9997669      -0.9041795
0.056                  0.9997314      -0.9732783
0.06                   0.9996936        -1.04228
0.064                  0.9996536       -1.111181
0.068                  0.9996118       -1.179973
0.072                  0.9995681       -1.248654
0.076                  0.9995226       -1.317218
0.08                   0.9994756       -1.385662
0.084                  0.9994269        -1.45398
0.088                  0.9993769       -1.522171
0.092                  0.9993258        -1.59023
0.096                  0.9992733       -1.658155
0.1                    0.9992201       -1.725944
0.104                  0.9991659       -1.793594
0.108                  0.9991111       -1.861104
0.112                  0.9990555       -1.928474
0.116                  0.9989997       -1.995701
0.12                   0.9989436       -2.062786
0.124                  0.9988873        -2.12973
0.128                   0.998831       -2.196531
0.132                  0.9987749       -2.263193
0.136                  0.9987192       -2.329715
0.14                   0.9986638         -2.3961
0.144                  0.9986091        -2.46235
0.148                  0.9985551       -2.528467
0.152                   0.998502       -2.594456
0.156                  0.9984499       -2.660318
0.16                    0.998399       -2.726059
0.164                  0.9983493       -2.791682
0.168                  0.9983011       -2.857192
0.172                  0.9982545       -2.922594
0.176                  0.9982095       -2.987894
0.18                   0.9981663       -3.053097
0.184                  0.9981249        -3.11821
0.188                  0.9980856       -3.183239
0.192                  0.9980483       -3.248191
0.196                  0.9980134       -3.313072
0.2                    0.9979807       -3.377891
0.204                  0.9979503       -3.442655
0.208                  0.9979226       -3.507371
0.212                  0.9978972       -3.572049
0.216                  0.9978746       -3.636695
0.22                   0.9978546        -3.70132
0.224                  0.9978372       -3.765931
0.228                  0.9978227       -3.830537
0.232                   0.997811       -3.895149
0.236                  0.9978021       -3.959774
0.24                   0.9977961       -4.024421
0.244                   0.997793       -4.089101
0.248                  0.9977929       -4.153822
0.252                  0.9977955       -4.218594
0.256                  0.9978011       -4.283426
0.26                   0.9978096       -4.348328
0.264                  0.9978209       -4.413308
0.268                   0.997835       -4.478377
0.272                  0.9978519       -4.543544
0.276                  0.9978717       -4.608816
0.28                   0.9978941       -4.674204
0.284                  0.9979191       -4.739715
0.288                  0.9979468        -4.80536
0.292                  0.9979771       -4.871146
0.296                  0.9980096       -4.937081
0.3                    0.9980445       -5.003173
0.304                  0.9980817       -5.069432
0.308                   0.998121       -5.135861
0.312                  0.9981624       -5.202472
0.316                  0.9982058       -5.269269
0.32                   0.9982511       -5.336259
0.324                  0.9982979       -5.403449
0.328                  0.9983465       -5.470844
0.332                  0.9983964       -5.538451
0.336                  0.9984478       -5.606273
0.34                   0.9985002       -5.674317
0.344                  0.9985539       -5.742585
0.348                  0.9986085       -5.811083
0.352                  0.9986638       -5.879815
0.356                  0.9987197       -5.948782
0.36                    0.998776        -6.01799
0.364                  0.9988328       -6.087438
0.368                  0.9988897       -6.157129
0.372                  0.9989467       -6.227065
0.376                  0.9990035       -6.297246
0.38                     0.99906       -6.367673
0.384                  0.9991162       -6.438348
0.388                  0.9991718       -6.509267
0.392                  0.9992265       -6.580433
0.396                  0.9992804       -6.651843
0.4                    0.9993334       -6.723495
0.404                  0.9993851       -6.795389
0.408                  0.9994355        -6.86752
0.412                  0.9994844       -6.939887
0.416                  0.9995319       -7.012486
0.42                   0.9995775       -7.085313
0.424                  0.9996213       -7.158365
0.428                  0.9996631       -7.231638
0.432                  0.9997027       -7.305126
0.436                  0.9997403       -7.378825
0.44                   0.9997756       -7.452728
0.444                  0.9998082       -7.526833
0.448                  0.9998386        -7.60113
0.452                  0.9998661       -7.675615
0.456                  0.9998912        -7.75028
0.46                   0.9999133       -7.825121
0.464                  0.9999325        -7.90013
0.468                   0.999949       -7.975297
0.472                  0.9999625        -8.05062
0.476                  0.9999728       -8.126086
0.48                   0.9999801       -8.201691
0.484                  0.9999845       -8.277427
0.488                  0.9999857       -8.353285
0.492                  0.9999837       -8.429258
0.496                  0.9999785       -8.505339
0.5                    0.9999702       -8.581518
0.504                  0.9999588       -8.657788
0.508                  0.9999443       -8.734142
0.512                  0.9999265       -8.810572
0.516                  0.9999058        -8.88707
0.52                   0.9998818       -8.963627
0.524                  0.9998551       -9.040235
0.528                  0.9998252        -9.11689
0.532                  0.9997926       -9.193583
0.536                  0.9997569       -9.270306
0.54                   0.9997187       -9.347053
0.544                  0.9996778       -9.423817
0.548                  0.9996341       -9.500593
0.552                   0.999588       -9.577373
0.556                  0.9995395       -9.654152
0.56                   0.9994887       -9.730923
0.564                  0.9994359       -9.807683
0.568                  0.9993808       -9.884427
0.572                  0.9993239       -9.961145
0.576                  0.9992651       -10.03784
0.58                   0.9992047       -10.11451
0.584                  0.9991429       -10.19114
0.588                  0.9990795       -10.26774
0.592                   0.999015       -10.34429
0.596                  0.9989492       -10.42081
0.6                    0.9988826       -10.49729
0.604                  0.9988152       -10.57372
0.608                  0.9987471       -10.65011
0.612                  0.9986786       -10.72645
0.616                  0.9986097       -10.80275
0.62                   0.9985407         -10.879
0.624                  0.9984718       -10.95522
0.628                   0.998403       -11.03139
0.632                  0.9983345       -11.10752
0.636                  0.9982665       -11.18361
0.64                   0.9981992       -11.25968
0.644                  0.9981328       -11.33571
0.648                  0.9980673       -11.41172
0.652                  0.9980029        -11.4877
0.656                  0.9979398       -11.56367
0.66                   0.9978781       -11.63963
0.664                  0.9978181       -11.71559
0.668                  0.9977596       -11.79155
0.672                  0.9977031       -11.86751
0.676                  0.9976485        -11.9435
0.68                    0.997596        -12.0195
0.684                  0.9975457       -12.09554
0.688                  0.9974979       -12.17161
0.692                  0.9974525       -12.24774
0.696                  0.9974095       -12.32392
0.7                    0.9973694       -12.40018
0.704                  0.9973318        -12.4765
0.708                  0.9972972       -12.55292
0.712                  0.9972654       -12.62943
0.716                  0.9972366       -12.70605
0.72                   0.9972108       -12.78279
0.724                  0.9971881       -12.85966
0.728                  0.9971685       -12.93667
0.732                  0.9971521       -13.01383
0.736                  0.9971388       -13.09116
0.74                   0.9971286       -13.16866
0.744                  0.9971217       -13.24635
0.748                   0.997118       -13.32424
0.752                  0.9971174       -13.40233
0.756                    0.99712       -13.48065
0.76                   0.9971258        -13.5592
0.764                  0.9971346         -13.638
0.768                  0.9971466       -13.71706
0.772                  0.9971615       -13.79638
0.776                  0.9971793       -13.87598
0.78                   0.9972001       -13.95587
0.784                  0.9972235       -14.03606
0.788                  0.9972496       -14.11657
0.792                  0.9972783       -14.19739
0.796                  0.9973097       -14.27855
0.8                    0.9973433       -14.36006
0.804                  0.9973791       -14.44192
0.808                  0.9974171       -14.52413
0.812                  0.9974571       -14.60672
0.816                  0.9974989        -14.6897
0.82                   0.9975425       -14.77305
0.824                  0.9975876       -14.85681
0.828                  0.9976341       -14.94097
0.832                  0.9976819       -15.02553
0.836                  0.9977306       -15.11052
0.84                   0.9977803       -15.19593
0.844                  0.9978308       -15.28177
0.848                  0.9978818       -15.36804
0.852                  0.9979332       -15.45475
0.856                  0.9979847       -15.54191
0.86                   0.9980362       -15.62951
0.864                  0.9980875       -15.71757
0.868                  0.9981383       -15.80608
0.872                  0.9981886       -15.89504
0.876                  0.9982381       -15.98446
0.88                   0.9982868       -16.07434
0.884                  0.9983341       -16.16468
0.888                  0.9983802       -16.25548
0.892                  0.9984246       -16.34673
0.896                  0.9984675       -16.43845
0.9                    0.9985082       -16.53062
0.904                  0.9985471       -16.62325
0.908                  0.9985836       -16.71633
0.912                  0.9986177       -16.80985
0.916                  0.9986491       -16.90383
0.92                   0.9986779       -16.99825
0.924                  0.9987036        -17.0931
0.928                  0.9987263       -17.18839
0.932                  0.9987457       -17.28411
0.936                  0.9987618       -17.38025
0.94                   0.9987744       -17.47681
0.944                  0.9987832       -17.57378
0.948                  0.9987884       -17.67116
0.952                  0.9987897       -17.76893
0.956                   0.998787        -17.8671
0.96                   0.9987802       -17.96565
0.964                  0.9987692       -18.06458
0.968                   0.998754       -18.16387
0.972                  0.9987345       -18.26352
0.976                  0.9987106       -18.36353
0.98                   0.9986823       -18.46388
0.984                  0.9986494       -18.56457
0.988                  0.9986122       -18.66558
0.992                  0.9985704       -18.76691
0.996                   0.998524       -18.86855
1                      0.9984731        -18.9705
1.004                  0.9984177       -19.07273
1.008                  0.9983577       -19.17525
1.012                  0.9982933       -19.27803
1.016                  0.9982243       -19.38112
1.02                    0.998151       -19.48444
1.024                  0.9980733       -19.58801
1.028                  0.9979914       -19.69183
1.032                  0.9979052       -19.79587
1.036                  0.9978149       -19.90015
1.04                   0.9977205       -20.00468
1.044                  0.9976223       -20.10938
1.048                  0.9975202       -20.21432
1.052                  0.9974145       -20.31945
1.056                  0.9973051       -20.42477
1.06                   0.9971923       -20.53031
1.064                  0.9970761       -20.63601
1.068                   0.996957       -20.74188
1.072                  0.9968348       -20.84797
1.076                  0.9967098       -20.95422
1.08                   0.9965821       -21.06063
1.084                  0.9964519       -21.16724
1.088                  0.9963195       -21.27398
1.092                  0.9961849       -21.38091
1.096                  0.9960485       -21.48804
1.1                    0.9959102        -21.5953
1.104                  0.9957705       -21.70272
1.108                  0.9956294       -21.81034
1.112                  0.9954873       -21.91812
1.116                  0.9953441       -22.02609
1.12                   0.9952003       -22.13423
1.124                  0.9950559       -22.24256
1.128                  0.9949112       -22.35106
1.132                  0.9947664       -22.45977
1.136                  0.9946217       -22.56868
1.14                   0.9944772        -22.6778
1.144                  0.9943334       -22.78712
1.148                    0.99419       -22.89668
1.152                  0.9940477       -23.00647
1.156                  0.9939064        -23.1165
1.16                   0.9937662       -23.22678
1.164                  0.9936275       -23.33733
1.168                  0.9934904       -23.44815
1.172                   0.993355       -23.55926
1.176                  0.9932217       -23.67067
1.18                   0.9930901        -23.7824
1.184                   0.992961       -23.89445
1.188                  0.9928342       -24.00685
1.192                  0.9927098        -24.1196
1.196                   0.992588       -24.23273
1.2                    0.9924689       -24.34625
1.204                  0.9923526       -24.46017
1.208                  0.9922391       -24.57452
1.212                  0.9921286       -24.68931
1.216                  0.9920211       -24.80456
1.22                   0.9919167       -24.92028
1.224                  0.9918154       -25.03651
1.228                  0.9917171       -25.15325
1.232                  0.9916222       -25.27051
1.236                  0.9915302       -25.38834
1.24                   0.9914416       -25.50673
1.244                   0.991356       -25.62572
1.248                  0.9912735       -25.74532
1.252                  0.9911941       -25.86556
1.256                  0.9911176       -25.98645
1.26                    0.991044       -26.10801
1.264                  0.9909734       -26.23026
1.268                  0.9909055       -26.35322
1.272                  0.9908402       -26.47691
1.276                  0.9907773       -26.60136
1.28                   0.9907169       -26.72658
1.284                  0.9906586       -26.85259
1.288                  0.9906025       -26.97941
1.292                  0.9905482       -27.10706
1.296                  0.9904957       -27.23556
1.3                    0.9904446       -27.36492
1.304                  0.9903949       -27.49517
1.308                  0.9903461       -27.62632
1.312                  0.9902982       -27.75839
1.316                   0.990251       -27.89139
1.32                   0.9902041       -28.02534
1.324                  0.9901573       -28.16026
1.328                  0.9901103       -28.29617
1.332                  0.9900628       -28.43307
1.336                  0.9900149       -28.57098
1.34                   0.9899656       -28.70992
1.344                  0.9899152       -28.84989
1.348                  0.9898632       -28.99091
1.352                  0.9898091       -29.13301
1.356                  0.9897529       -29.27616
1.36                   0.9896942        -29.4204
1.364                  0.9896325       -29.56574
1.368                  0.9895677       -29.71218
1.372                  0.9894993       -29.85973
1.376                  0.9894271       -30.00839
1.38                   0.9893507       -30.15818
1.384                  0.9892698        -30.3091
1.388                  0.9891841       -30.46116
1.392                  0.9890933       -30.61435
1.396                  0.9889968        -30.7687
1.4                    0.9888947        -30.9242
1.404                  0.9887863       -31.08084
1.408                  0.9886716       -31.23865
1.412                  0.9885501        -31.3976
1.416                  0.9884215       -31.55772
1.42                   0.9882854       -31.71899
1.424                  0.9881419       -31.88142
1.428                  0.9879904       -32.04501
1.432                  0.9878305       -32.20975
1.436                  0.9876623       -32.37565
1.44                   0.9874851        -32.5427
1.444                  0.9872991        -32.7109
1.448                  0.9871038       -32.88024
1.452                  0.9868988       -33.05074
1.456                  0.9866842       -33.22236
1.46                   0.9864597       -33.39512
1.464                  0.9862251       -33.56901
1.468                    0.98598       -33.74403
1.472                  0.9857244       -33.92017
1.476                  0.9854581       -34.09742
1.48                   0.9851811       -34.27579
1.484                   0.984893       -34.45525
1.488                  0.9845938       -34.63582
1.492                  0.9842835       -34.81748
1.496                  0.9839617       -35.00023
1.5                    0.9836286       -35.18406
1.504                  0.9832839       -35.36897
1.508                  0.9829276       -35.55496
1.512                  0.9825599       -35.74201
1.516                  0.9821806       -35.93012
1.52                   0.9817893        -36.1193
1.524                  0.9813866       -36.30953
1.528                  0.9809724       -36.50081
1.532                  0.9805464       -36.69315
1.536                  0.9801087       -36.88653
1.54                   0.9796596       -37.08095
1.544                  0.9791988       -37.27642
1.548                  0.9787268       -37.47291
1.552                  0.9782434       -37.67047
1.556                  0.9777488       -37.86906
1.56                    0.977243        -38.0687
1.564                  0.9767262       -38.26938
1.568                  0.9761984       -38.47111
1.572                    0.97566       -38.67389
1.576                  0.9751108       -38.87773
1.58                   0.9745511       -39.08265
1.584                  0.9739811       -39.28862
1.588                   0.973401       -39.49567
1.592                  0.9728109       -39.70381
1.596                  0.9722109       -39.91306
1.6                    0.9716014       -40.12341
1.604                  0.9709821       -40.33488
1.608                  0.9703537       -40.54749
1.612                  0.9697162       -40.76124
1.616                  0.9690696       -40.97617
1.62                   0.9684144       -41.19228
1.624                  0.9677506        -41.4096
1.628                  0.9670785       -41.62813
1.632                  0.9663981       -41.84792
1.636                  0.9657095       -42.06897
1.64                   0.9650132       -42.29131
1.644                  0.9643093       -42.51497
1.648                  0.9635977       -42.73997
1.652                  0.9628786       -42.96636
1.656                  0.9621523       -43.19414
1.66                   0.9614188       -43.42336
1.664                  0.9606782       -43.65405
1.668                  0.9599308       -43.88624
1.672                  0.9591764       -44.11997
1.676                  0.9584153       -44.35527
1.68                   0.9576474       -44.59219
1.684                  0.9568728       -44.83076
1.688                  0.9560916       -45.07102
1.692                  0.9553037       -45.31302
1.696                  0.9545091        -45.5568
1.7                    0.9537078        -45.8024
1.704                  0.9528997       -46.04987
1.708                  0.9520847       -46.29926
1.712                   0.951263       -46.55062
1.716                  0.9504339       -46.80398
1.72                   0.9495979       -47.05941
1.724                  0.9487543       -47.31696
1.728                  0.9479031       -47.57668
1.732                  0.9470442       -47.83863
1.736                  0.9461772       -48.10284
1.74                   0.9453019       -48.36939
1.744                  0.9444179       -48.63833
1.748                  0.9435249       -48.90971
1.752                  0.9426225       -49.18359
1.756                  0.9417105       -49.46003
1.76                   0.9407884        -49.7391
1.764                  0.9398555       -50.02083
1.768                  0.9389117       -50.30531
1.772                  0.9379563       -50.59257
1.776                  0.9369886        -50.8827
1.78                   0.9360084       -51.17575
1.784                  0.9350149       -51.47176
1.788                  0.9340075       -51.77082
1.792                  0.9329855       -52.07298
1.796                  0.9319483        -52.3783
1.8                    0.9308952       -52.68683
1.804                  0.9298254       -52.99865
1.808                  0.9287381       -53.31381
1.812                  0.9276325       -53.63239
1.816                   0.926508       -53.95442
1.82                   0.9253635       -54.27997
1.824                  0.9241982       -54.60911
1.828                  0.9230114        -54.9419
1.832                  0.9218019       -55.27838
1.836                  0.9205688       -55.61863
1.84                   0.9193112        -55.9627
1.844                  0.9180283       -56.31064
1.848                  0.9167187       -56.66252
1.852                  0.9153817        -57.0184
1.856                  0.9140162       -57.37831
1.86                    0.912621       -57.74233
1.864                  0.9111951       -58.11051
1.868                  0.9097375        -58.4829
1.872                  0.9082469       -58.85954
1.876                  0.9067224        -59.2405
1.88                   0.9051627       -59.62584
1.884                  0.9035667       -60.01559
1.888                  0.9019334       -60.40981
1.892                  0.9002613       -60.80855
1.896                  0.8985496       -61.21186
1.9                     0.896797       -61.61979
1.904                  0.8950023       -62.03238
1.908                  0.8931643       -62.44968
1.912                  0.8912819       -62.87173
1.916                   0.889354       -63.29857
1.92                   0.8873793       -63.73028
1.924                  0.8853566       -64.16685
1.928                  0.8832849       -64.60837
1.932                  0.8811629       -65.05486
1.936                  0.8789896       -65.50636
1.94                   0.8767637       -65.96292
1.944                  0.8744841       -66.42458
1.948                    0.87215       -66.89138
1.952                  0.8697598       -67.36335
1.956                  0.8673128       -67.84055
1.96                   0.8648078       -68.32299
1.964                  0.8622438       -68.81075
1.968                  0.8596197       -69.30383
1.972                  0.8569346       -69.80229
1.976                  0.8541874       -70.30615
1.98                   0.8513772       -70.81547
1.984                  0.8485031       -71.33028
1.988                  0.8455642       -71.85062
1.992                  0.8425596       -72.37652
1.996                  0.8394883       -72.90804
2                      0.8363498        -73.4452
2.004                   0.833143       -73.98806
2.008                  0.8298674       -74.53663
2.012                  0.8265222       -75.09097
2.016                  0.8231066       -75.65114
2.02                   0.8196201       -76.21716
2.024                  0.8160621       -76.78907
2.028                   0.812432       -77.36693
2.032                  0.8087291       -77.95079
2.036                  0.8049532       -78.54068
2.04                   0.8011037       -79.13666
2.044                  0.7971802       -79.73877
2.048                  0.7931825       -80.34708
2.052                  0.7891101       -80.96163
2.056                  0.7849627       -81.58247
2.06                   0.7807404        -82.2097
2.064                  0.7764427       -82.84332
2.068                  0.7720698       -83.48344
2.072                  0.7676212        -84.1301
2.076                  0.7630974       -84.78338
2.08                    0.758498       -85.44335
2.084                  0.7538233       -86.11009
2.088                  0.7490735       -86.78365
2.092                  0.7442487       -87.46416
2.096                  0.7393491       -88.15166
2.1                    0.7343752       -88.84626
2.104                  0.7293273       -89.54807
2.108                  0.7242057       -90.25715
2.112                   0.719011       -90.97362
2.116                  0.7137438       -91.69759
2.12                   0.7084046       -92.42918
2.124                  0.7029942       -93.16849
2.128                  0.6975132       -93.91566
2.132                  0.6919624       -94.67082
2.136                  0.6863428       -95.43409
2.14                   0.6806552       -96.20564
2.144                  0.6749007       -96.98561
2.148                  0.6690802       -97.77414
2.152                   0.663195       -98.57142
2.156                  0.6572463       -99.37762
2.16                   0.6512352       -100.1929
2.164                  0.6451632       -101.0175
2.168                  0.6390316       -101.8516
2.172                  0.6328419       -102.6954
2.176                  0.6265957       -103.5491
2.18                   0.6202947       -104.4131
2.184                  0.6139405       -105.2874
2.188                  0.6075351       -106.1724
2.192                    0.60108       -107.0684
2.196                  0.5945775       -107.9755
2.2                    0.5880295       -108.8943
2.204                  0.5814381       -109.8249
2.208                  0.5748057       -110.7677
2.212                  0.5681343        -111.723
2.216                  0.5614267       -112.6912
2.22                   0.5546851       -113.6727
2.224                  0.5479121       -114.6679
2.228                  0.5411105       -115.6772
2.232                  0.5342832       -116.7011
2.236                  0.5274329         -117.74
2.24                   0.5205627       -118.7944
2.244                  0.5136758       -119.8649
2.248                  0.5067753       -120.9518
2.252                  0.4998648        -122.056
2.256                  0.4929477       -123.1778
2.26                   0.4860276       -124.3179
2.264                  0.4791083        -125.477
2.268                  0.4721938       -126.6557
2.272                  0.4652879       -127.8548
2.276                  0.4583952       -129.0748
2.28                   0.4515198       -130.3167
2.284                  0.4446663       -131.5812
2.288                  0.4378395        -132.869
2.292                  0.4310443       -134.1811
2.296                  0.4242856       -135.5183
2.3                    0.4175689       -136.8814
2.304                  0.4108995       -138.2715
2.308                  0.4042832       -139.6894
2.312                  0.3977256       -141.1361
2.316                  0.3912332       -142.6126
2.32                   0.3848121       -144.1198
2.324                  0.3784689       -145.6588
2.328                  0.3722102       -147.2305
2.332                  0.3660432       -148.8359
2.336                   0.359975        -150.476
2.34                   0.3540131       -152.1517
2.344                  0.3481651       -153.8639
2.348                   0.342439       -155.6134
2.352                  0.3368429       -157.4011