! TOUCHSTONE file generated by CST MICROWAVE STUDIO
! Date and time: Sat May 14 11:21:45 2022
! Project name: AppElm_antenne_dipole_Alumina.cst
! Parameters = {L=33; e=0.035; f=2.45e+09; h=1.6; i=0.8; l1=2; lambda=122.449; ls=30; wl=1.7; ws=100}
! Header version: 2018
! Port assignment regex: !\s*Touchstone port\s*([0-9]+)\s*=\s*(CST MWS port|CST DS port)\s*([0-9]+|Zmin|Zmax)\s*\(\"(.*)\"\)(\s*mode\s*([0-9]+))?.*
! Touchstone port assignment:
! Touchstone port 1 = CST MWS port 1 ("")
# GHz S MA R 50
0                              1              -0
0.004                  0.9999988     -0.06940017
0.008                  0.9999949      -0.1387938
0.012                  0.9999887      -0.2081742
0.016                  0.9999799      -0.2775349
0.02                   0.9999688      -0.3468695
0.024                  0.9999551      -0.4161716
0.028                   0.999939      -0.4854347
0.032                  0.9999205      -0.5546529
0.036                  0.9998998      -0.6238199
0.04                   0.9998768      -0.6929298
0.044                  0.9998516       -0.761977
0.048                  0.9998243      -0.8309557
0.052                  0.9997949      -0.8998607
0.056                  0.9997636      -0.9686867
0.06                   0.9997303       -1.037429
0.064                  0.9996952       -1.106083
0.068                  0.9996583       -1.174643
0.072                  0.9996199       -1.243106
0.076                  0.9995799       -1.311469
0.08                   0.9995385       -1.379726
0.084                  0.9994958       -1.447876
0.088                  0.9994518       -1.515914
0.092                  0.9994069       -1.583839
0.096                  0.9993608       -1.651648
0.1                    0.9993138       -1.719339
0.104                  0.9992662       -1.786911
0.108                  0.9992179       -1.854362
0.112                  0.9991693       -1.921691
0.116                  0.9991202       -1.988898
0.12                   0.9990708       -2.055982
0.124                  0.9990214       -2.122945
0.128                   0.998972       -2.189786
0.132                  0.9989227       -2.256506
0.136                  0.9988737       -2.323107
0.14                   0.9988251       -2.389591
0.144                   0.998777       -2.455958
0.148                  0.9987296       -2.522214
0.152                   0.998683       -2.588359
0.156                  0.9986374       -2.654397
0.16                   0.9985926       -2.720331
0.164                  0.9985491       -2.786167
0.168                  0.9985068       -2.851907
0.172                  0.9984658       -2.917557
0.176                  0.9984264        -2.98312
0.18                   0.9983885       -3.048604
0.184                  0.9983523       -3.114012
0.188                  0.9983178       -3.179352
0.192                  0.9982852       -3.244628
0.196                  0.9982547       -3.309848
0.2                    0.9982261       -3.375018
0.204                  0.9981996       -3.440144
0.208                  0.9981753       -3.505235
0.212                  0.9981532       -3.570296
0.216                  0.9981335       -3.635337
0.22                    0.998116       -3.700363
0.224                   0.998101       -3.765384
0.228                  0.9980884       -3.830407
0.232                  0.9980784       -3.895441
0.236                  0.9980708       -3.960491
0.24                   0.9980657       -4.025569
0.244                  0.9980631       -4.090681
0.248                  0.9980631       -4.155837
0.252                  0.9980658       -4.221044
0.256                  0.9980709       -4.286311
0.26                   0.9980785       -4.351645
0.264                  0.9980886       -4.417057
0.268                  0.9981011       -4.482553
0.272                  0.9981163       -4.548142
0.276                  0.9981337       -4.613833
0.28                   0.9981536       -4.679631
0.284                  0.9981758       -4.745546
0.288                  0.9982003       -4.811587
0.292                  0.9982269       -4.877759
0.296                  0.9982557        -4.94407
0.3                    0.9982865       -5.010528
0.304                  0.9983194       -5.077138
0.308                  0.9983539        -5.14391
0.312                  0.9983905       -5.210847
0.316                  0.9984286       -5.277957
0.32                   0.9984683       -5.345246
0.324                  0.9985096       -5.412719
0.328                  0.9985523        -5.48038
0.332                  0.9985961       -5.548236
0.336                  0.9986413        -5.61629
0.34                   0.9986874       -5.684548
0.344                  0.9987345       -5.753013
0.348                  0.9987822       -5.821689
0.352                  0.9988308       -5.890579
0.356                  0.9988798       -5.959685
0.36                   0.9989292       -6.029011
0.364                  0.9989788       -6.098559
0.368                  0.9990286       -6.168328
0.372                  0.9990786       -6.238323
0.376                  0.9991282       -6.308544
0.38                   0.9991776       -6.378989
0.384                  0.9992265       -6.449662
0.388                   0.999275        -6.52056
0.392                  0.9993228       -6.591684
0.396                  0.9993698       -6.663032
0.4                    0.9994159       -6.734602
0.404                  0.9994608       -6.806395
0.408                  0.9995046       -6.878407
0.412                  0.9995472       -6.950636
0.416                  0.9995882       -7.023079
0.42                   0.9996277       -7.095733
0.424                  0.9996655       -7.168594
0.428                  0.9997016       -7.241659
0.432                  0.9997359       -7.314924
0.436                  0.9997681       -7.388386
0.44                   0.9997982       -7.462037
0.444                  0.9998264       -7.535875
0.448                   0.999852       -7.609892
0.452                  0.9998755       -7.684085
0.456                  0.9998966        -7.75845
0.46                   0.9999151       -7.832976
0.464                  0.9999312        -7.90766
0.468                  0.9999448       -7.982499
0.472                  0.9999557        -8.05748
0.476                  0.9999639       -8.132601
0.48                   0.9999693       -8.207855
0.484                  0.9999721       -8.283235
0.488                  0.9999721       -8.358735
0.492                  0.9999693       -8.434344
0.496                  0.9999637       -8.510062
0.5                    0.9999553       -8.585877
0.504                  0.9999441       -8.661784
0.508                  0.9999303       -8.737776
0.512                  0.9999136       -8.813847
0.516                  0.9998942       -8.889989
0.52                   0.9998721       -8.966196
0.524                  0.9998472       -9.042461
0.528                    0.99982       -9.118779
0.532                  0.9997901       -9.195142
0.536                  0.9997578       -9.271547
0.54                   0.9997228       -9.347983
0.544                  0.9996857       -9.424449
0.548                  0.9996463       -9.500938
0.552                  0.9996045       -9.577444
0.556                  0.9995608       -9.653962
0.56                    0.999515       -9.730489
0.564                  0.9994673       -9.807019
0.568                  0.9994179       -9.883547
0.572                  0.9993667       -9.960072
0.576                   0.999314       -10.03659
0.58                   0.9992598       -10.11309
0.584                  0.9992043       -10.18959
0.588                  0.9991476       -10.26606
0.592                  0.9990897       -10.34252
0.596                  0.9990308       -10.41896
0.6                    0.9989713       -10.49538
0.604                  0.9989109       -10.57177
0.608                  0.9988501       -10.64815
0.612                   0.998789        -10.7245
0.616                  0.9987275       -10.80083
0.62                    0.998666       -10.87713
0.624                  0.9986044       -10.95342
0.628                   0.998543       -11.02969
0.632                   0.998482       -11.10595
0.636                  0.9984213       -11.18219
0.64                   0.9983613       -11.25842
0.644                  0.9983021       -11.33465
0.648                  0.9982437       -11.41087
0.652                  0.9981863       -11.48709
0.656                  0.9981299       -11.56333
0.66                    0.998075       -11.63957
0.664                  0.9980213       -11.71582
0.668                  0.9979691       -11.79211
0.672                  0.9979187       -11.86842
0.676                  0.9978701       -11.94476
0.68                   0.9978232       -12.02115
0.684                  0.9977783       -12.09759
0.688                  0.9977355       -12.17409
0.692                  0.9976948       -12.25065
0.696                  0.9976563       -12.32729
0.7                    0.9976202       -12.40401
0.704                  0.9975865       -12.48082
0.708                  0.9975553       -12.55773
0.712                  0.9975266       -12.63475
0.716                  0.9975005       -12.71189
0.72                   0.9974769       -12.78917
0.724                  0.9974561       -12.86658
0.728                  0.9974381       -12.94413
0.732                  0.9974227       -13.02185
0.736                  0.9974102       -13.09974
0.74                   0.9974004       -13.17781
0.744                  0.9973932       -13.25607
0.748                  0.9973889       -13.33453
0.752                  0.9973875        -13.4132
0.756                  0.9973886        -13.4921
0.76                   0.9973925       -13.57123
0.764                  0.9973991        -13.6506
0.768                  0.9974084       -13.73022
0.772                  0.9974202       -13.81011
0.776                  0.9974344       -13.89027
0.78                   0.9974512       -13.97071
0.784                  0.9974703       -14.05145
0.788                  0.9974917       -14.13249
0.792                  0.9975152       -14.21384
0.796                   0.997541       -14.29552
0.8                    0.9975688       -14.37752
0.804                  0.9975983       -14.45987
0.808                  0.9976298       -14.54256
0.812                  0.9976628       -14.62561
0.816                  0.9976974       -14.70902
0.82                   0.9977333       -14.79281
0.824                  0.9977706       -14.87697
0.828                   0.997809       -14.96152
0.832                  0.9978484       -15.04645
0.836                  0.9978886       -15.13179
0.84                   0.9979295       -15.21753
0.844                  0.9979708       -15.30367
0.848                  0.9980126       -15.39023
0.852                  0.9980545       -15.47721
0.856                  0.9980964       -15.56461
0.86                   0.9981383       -15.65243
0.864                  0.9981797       -15.74067
0.868                  0.9982207       -15.82935
0.872                  0.9982612       -15.91846
0.876                  0.9983007         -16.008
0.88                   0.9983392       -16.09798
0.884                  0.9983768       -16.18839
0.888                  0.9984129       -16.27924
0.892                  0.9984475       -16.37052
0.896                  0.9984804       -16.46224
0.9                    0.9985115       -16.55439
0.904                  0.9985407       -16.64697
0.908                  0.9985678       -16.73998
0.912                  0.9985925       -16.83342
0.916                  0.9986148       -16.92729
0.92                   0.9986345       -17.02157
0.924                  0.9986515       -17.11628
0.928                  0.9986656        -17.2114
0.932                  0.9986768       -17.30692
0.936                  0.9986849       -17.40285
0.94                   0.9986897       -17.49918
0.944                  0.9986911       -17.59591
0.948                  0.9986893       -17.69303
0.952                  0.9986838       -17.79053
0.956                  0.9986746       -17.88841
0.96                   0.9986618       -17.98665
0.964                  0.9986451       -18.08527
0.968                  0.9986246       -18.18424
0.972                  0.9986002       -18.28356
0.976                  0.9985718       -18.38323
0.98                   0.9985394       -18.48324
0.984                  0.9985029       -18.58357
0.988                  0.9984624       -18.68423
0.992                  0.9984177        -18.7852
0.996                   0.998369       -18.88648
1                      0.9983161       -18.98807
1.004                  0.9982591       -19.08995
1.008                  0.9981982       -19.19211
1.012                  0.9981331       -19.29456
1.016                   0.998064       -19.39729
1.02                   0.9979908       -19.50024
1.024                  0.9979139       -19.60348
1.028                  0.9978329         -19.707
1.032                  0.9977483       -19.81073
1.036                  0.9976599       -19.91474
1.04                   0.9975678       -20.01895
1.044                  0.9974723       -20.12339
1.048                  0.9973733       -20.22806
1.052                  0.9972709       -20.33297
1.056                  0.9971653       -20.43807
1.06                   0.9970566        -20.5434
1.064                  0.9969449       -20.64893
1.068                  0.9968305       -20.75467
1.072                  0.9967133       -20.86062
1.076                  0.9965935       -20.96676
1.08                   0.9964714       -21.07309
1.084                  0.9963469       -21.17964
1.088                  0.9962205       -21.28638
1.092                   0.996092       -21.39332
1.096                  0.9959618       -21.50044
1.1                      0.99583       -21.60776
1.104                  0.9956968       -21.71527
1.108                  0.9955623       -21.82299
1.112                  0.9954269       -21.93093
1.116                  0.9952904        -22.0391
1.12                   0.9951533       -22.14742
1.124                  0.9950156       -22.25602
1.128                  0.9948774       -22.36479
1.132                  0.9947391        -22.4738
1.136                   0.994601       -22.58305
1.14                   0.9944628       -22.69254
1.144                   0.994325       -22.80227
1.148                  0.9941878       -22.91227
1.152                   0.994051       -23.02252
1.156                  0.9939153       -23.13305
1.16                   0.9937804       -23.24387
1.164                  0.9936466       -23.35498
1.168                  0.9935142       -23.46639
1.172                  0.9933831       -23.57813
1.176                  0.9932535       -23.69019
1.18                   0.9931257       -23.80259
1.184                  0.9929996       -23.91535
1.188                  0.9928754       -24.02848
1.192                  0.9927531       -24.14199
1.196                   0.992633        -24.2559
1.2                     0.992515       -24.37022
1.204                  0.9923993       -24.48497
1.208                  0.9922859       -24.60016
1.212                  0.9921749       -24.71582
1.216                  0.9920664       -24.83195
1.22                   0.9919602       -24.94858
1.224                  0.9918566       -25.06572
1.228                  0.9917554       -25.18338
1.232                  0.9916567       -25.30159
1.236                  0.9915606       -25.42037
1.24                    0.991467       -25.53973
1.244                  0.9913757       -25.65969
1.248                   0.991287       -25.78026
1.252                  0.9912005       -25.90147
1.256                  0.9911164       -26.02334
1.26                   0.9910344       -26.14588
1.264                  0.9909547       -26.26911
1.268                  0.9908769       -26.39305
1.272                  0.9908011       -26.51772
1.276                   0.990727       -26.64313
1.28                   0.9906546       -26.76931
1.284                  0.9905838       -26.89627
1.288                  0.9905145       -27.02402
1.292                  0.9904462        -27.1526
1.296                   0.990379         -27.282
1.3                    0.9903125       -27.41226
1.304                   0.990247       -27.54338
1.308                  0.9901816       -27.67538
1.312                  0.9901166       -27.80829
1.316                  0.9900516        -27.9421
1.32                   0.9899864       -28.07684
1.324                  0.9899206       -28.21253
1.328                  0.9898541       -28.34917
1.332                  0.9897868       -28.48678
1.336                  0.9897182       -28.62537
1.34                   0.9896481       -28.76497
1.344                  0.9895762       -28.90556
1.348                  0.9895024       -29.04718
1.352                  0.9894262       -29.18981
1.356                  0.9893473        -29.3335
1.36                   0.9892656       -29.47823
1.364                  0.9891808       -29.62402
1.368                  0.9890924       -29.77088
1.372                  0.9890003       -29.91881
1.376                  0.9889039       -30.06782
1.38                   0.9888033       -30.21792
1.384                  0.9886979       -30.36912
1.388                  0.9885877       -30.52141
1.392                  0.9884722       -30.67481
1.396                   0.988351       -30.82932
1.4                     0.988224       -30.98494
1.404                  0.9880908       -31.14168
1.408                  0.9879512       -31.29954
1.412                   0.987805       -31.45852
1.416                  0.9876517       -31.61862
1.42                    0.987491       -31.77985
1.424                  0.9873229        -31.9422
1.428                   0.987147       -32.10567
1.432                  0.9869629       -32.27027
1.436                  0.9867707       -32.43599
1.44                   0.9865698       -32.60283
1.444                  0.9863603        -32.7708
1.448                  0.9861416       -32.93988
1.452                  0.9859137       -33.11008
1.456                  0.9856766       -33.28139
1.46                   0.9854296       -33.45382
1.464                   0.985173       -33.62735
1.468                  0.9849064       -33.80199
1.472                  0.9846297       -33.97773
1.476                  0.9843427       -34.15457
1.48                   0.9840451        -34.3325
1.484                  0.9837371       -34.51153
1.488                  0.9834184       -34.69165
1.492                  0.9830889       -34.87284
1.496                  0.9827486       -35.05512
1.5                    0.9823972       -35.23847
1.504                  0.9820349        -35.4229
1.508                  0.9816613        -35.6084
1.512                  0.9812768       -35.79497
1.516                  0.9808809        -35.9826
1.52                    0.980474        -36.1713
1.524                  0.9800557       -36.36106
1.528                  0.9796263       -36.55188
1.532                  0.9791857       -36.74375
1.536                  0.9787338       -36.93669
1.54                   0.9782708       -37.13069
1.544                  0.9777967       -37.32574
1.548                  0.9773114       -37.52186
1.552                  0.9768154       -37.71903
1.556                  0.9763082       -37.91727
1.56                   0.9757901       -38.11659
1.564                  0.9752614       -38.31696
1.568                  0.9747219       -38.51842
1.572                  0.9741719       -38.72097
1.576                  0.9736114        -38.9246
1.58                   0.9730406       -39.12932
1.584                  0.9724595       -39.33515
1.588                  0.9718683        -39.5421
1.592                   0.971267       -39.75018
1.596                   0.970656       -39.95938
1.6                    0.9700352       -40.16974
1.604                  0.9694048       -40.38126
1.608                   0.968765       -40.59395
1.612                  0.9681159       -40.80784
1.616                  0.9674576       -41.02293
1.62                   0.9667903       -41.23925
1.624                  0.9661141       -41.45684
1.628                   0.965429       -41.67568
1.632                  0.9647353       -41.89581
1.636                  0.9640332       -42.11725
1.64                   0.9633225       -42.34004
1.644                  0.9626036       -42.56418
1.648                  0.9618763       -42.78972
1.652                  0.9611412       -43.01666
1.656                  0.9603978       -43.24507
1.66                   0.9596464       -43.47495
1.664                  0.9588872       -43.70633
1.668                  0.9581201       -43.93927
1.672                  0.9573451       -44.17378
1.676                  0.9565624        -44.4099
1.68                   0.9557718       -44.64768
1.684                  0.9549734       -44.88714
1.688                  0.9541671       -45.12833
1.692                  0.9533528       -45.37128
1.696                  0.9525308       -45.61604
1.7                    0.9517006       -45.86266
1.704                  0.9508624       -46.11116
1.708                  0.9500157       -46.36161
1.712                  0.9491606       -46.61405
1.716                   0.948297       -46.86852
1.72                   0.9474247       -47.12506
1.724                  0.9465433       -47.38373
1.728                  0.9456526       -47.64459
1.732                  0.9447526       -47.90766
1.736                  0.9438429       -48.17301
1.74                    0.942923       -48.44069
1.744                  0.9419926       -48.71076
1.748                  0.9410514       -48.98325
1.752                  0.9400992       -49.25823
1.756                  0.9391354       -49.53576
1.76                   0.9381595       -49.81588
1.764                  0.9371713       -50.09865
1.768                    0.93617       -50.38412
1.772                  0.9351553       -50.67236
1.776                  0.9341266       -50.96341
1.78                   0.9330831       -51.25734
1.784                  0.9320246       -51.55419
1.788                  0.9309502       -51.85404
1.792                  0.9298592       -52.15692
1.796                  0.9287512        -52.4629
1.8                    0.9276253       -52.77203
1.804                  0.9264808       -53.08437
1.808                   0.925317       -53.39998
1.812                  0.9241331       -53.71892
1.816                  0.9229284       -54.04123
1.82                   0.9217018       -54.36697
1.824                  0.9204527       -54.69621
1.828                  0.9191801       -55.02899
1.832                  0.9178833       -55.36536
1.836                  0.9165612       -55.70539
1.84                   0.9152129       -56.04913
1.844                  0.9138375       -56.39662
1.848                   0.912434       -56.74792
1.852                  0.9110015       -57.10309
1.856                  0.9095389       -57.46218
1.86                   0.9080453       -57.82524
1.864                  0.9065197       -58.19229
1.868                  0.9049608       -58.56343
1.872                  0.9033678       -58.93868
1.876                  0.9017395       -59.31809
1.88                   0.9000751       -59.70171
1.884                  0.8983732       -60.08959
1.888                  0.8966327       -60.48178
1.892                  0.8948528       -60.87832
1.896                  0.8930322       -61.27925
1.9                    0.8911699       -61.68462
1.904                  0.8892648       -62.09447
1.908                  0.8873157       -62.50885
1.912                  0.8853216        -62.9278
1.916                  0.8832815       -63.35135
1.92                   0.8811939       -63.77958
1.924                  0.8790581       -64.21248
1.928                   0.876873        -64.6501
1.932                  0.8746373        -65.0925
1.936                  0.8723501       -65.53973
1.94                   0.8700103       -65.99179
1.944                   0.867617       -66.44875
1.948                  0.8651689       -66.91062
1.952                  0.8626651       -67.37748
1.956                  0.8601047        -67.8493
1.96                   0.8574865       -68.32619
1.964                  0.8548099       -68.80813
1.968                  0.8520736       -69.29518
1.972                  0.8492768       -69.78738
1.976                  0.8464185       -70.28479
1.98                    0.843498       -70.78738
1.984                  0.8405143       -71.29524
1.988                  0.8374667       -71.80838
1.992                  0.8343542       -72.32687
1.996                  0.8311762       -72.85072
2                       0.827932       -73.37997
2.004                  0.8246208       -73.91465
2.008                  0.8212417       -74.45483
2.012                  0.8177944       -75.00051
2.016                  0.8142781       -75.55178
2.02                   0.8106922       -76.10863
2.024                  0.8070364       -76.67112
2.028                  0.8033099       -77.23931
2.032                  0.7995123       -77.81324
2.036                  0.7956432       -78.39293
2.04                   0.7917022       -78.97844
2.044                  0.7876891       -79.56983
2.048                  0.7836034       -80.16714
2.052                  0.7794449       -80.77044
2.056                  0.7752134       -81.37975
2.06                   0.7709086       -81.99515
2.064                  0.7665306       -82.61669
2.068                  0.7620791       -83.24444
2.072                  0.7575542       -83.87845
2.076                  0.7529559       -84.51879
2.08                   0.7482842       -85.16553
2.084                  0.7435394       -85.81874
2.088                  0.7387215       -86.47851
2.092                  0.7338306        -87.1449
2.096                  0.7288671       -87.81802
2.1                    0.7238315       -88.49791
2.104                  0.7187238       -89.18469
2.108                  0.7135448       -89.87847
2.112                  0.7082948        -90.5793
2.116                  0.7029744       -91.28735
2.12                   0.6975841       -92.00266
2.124                  0.6921246        -92.7254
2.128                  0.6865966       -93.45566
2.132                   0.681001       -94.19359
2.136                  0.6753385       -94.93931
2.14                     0.66961       -95.69294
2.144                  0.6638166       -96.45467
2.148                  0.6579592       -97.22461
2.152                  0.6520388       -98.00297
2.156                  0.6460567       -98.78987
2.16                   0.6400141       -99.58553
2.164                  0.6339122       -100.3901
2.168                  0.6277523       -101.2039
2.172                  0.6215361       -102.0269
2.176                  0.6152648       -102.8596
2.18                   0.6089399        -103.702
2.184                  0.6025634       -104.5545
2.188                  0.5961366       -105.4172
2.192                  0.5896615       -106.2906
2.196                    0.58314       -107.1747
2.2                    0.5765739         -108.07
2.204                  0.5699652       -108.9768
2.208                   0.563316       -109.8954
2.212                  0.5566286       -110.8261
2.216                  0.5499053       -111.7693
2.22                   0.5431483       -112.7254
2.224                  0.5363601       -113.6947
2.228                  0.5295434       -114.6778
2.232                  0.5227005       -115.6751
2.236                  0.5158345       -116.6869
2.24                   0.5089481       -117.7139
2.244                  0.5020442       -118.7565
2.248                  0.4951259       -119.8153
2.252                  0.4881966       -120.8909
2.256                  0.4812593       -121.9837
2.26                   0.4743176       -123.0946
2.264                   0.467375       -124.2241
2.268                  0.4604353       -125.3729
2.272                  0.4535023       -126.5417
2.276                  0.4465799       -127.7313
2.28                   0.4396724       -128.9425
2.284                   0.432784       -130.1761
2.288                  0.4259191       -131.4329
2.292                  0.4190827       -132.7139
2.296                  0.4122793       -134.0199
2.3                     0.405514       -135.3519
2.304                  0.3987921       -136.7109
2.308                   0.392119       -138.0979
2.312                  0.3855002        -139.514
2.316                  0.3789418       -140.9602
2.32                   0.3724499       -142.4377
2.324                  0.3660306       -143.9475
2.328                  0.3596906       -145.4907
2.332                  0.3534369       -147.0686
2.336                  0.3472763       -148.6822
2.34                   0.3412161       -150.3327
2.344                  0.3352641       -152.0211
2.348                   0.329428       -153.7486
2.352                  0.3237159        -155.516