! TOUCHSTONE file generated by CST MICROWAVE STUDIO
! Date and time: Sat May 14 11:21:41 2022
! Project name: AppElm_antenne_dipole_Alumina.cst
! Parameters = {L=33; e=0.035; f=2.45e+09; h=1.6; i=0.8; l1=2; lambda=122.449; ls=30; wl=1.7; ws=84}
! Header version: 2018
! Port assignment regex: !\s*Touchstone port\s*([0-9]+)\s*=\s*(CST MWS port|CST DS port)\s*([0-9]+|Zmin|Zmax)\s*\(\"(.*)\"\)(\s*mode\s*([0-9]+))?.*
! Touchstone port assignment:
! Touchstone port 1 = CST MWS port 1 ("")
# GHz S MA R 50
0                              1              -0
0.004                  0.9999986     -0.06960318
0.008                  0.9999946      -0.1391992
0.012                  0.9999879      -0.2087809
0.016                  0.9999784      -0.2783414
0.02                   0.9999663      -0.3478734
0.024                  0.9999516      -0.4173701
0.028                  0.9999343      -0.4868247
0.032                  0.9999144      -0.5562303
0.036                  0.9998922      -0.6255806
0.04                   0.9998674      -0.6948688
0.044                  0.9998402       -0.764089
0.048                  0.9998108      -0.8332348
0.052                  0.9997793      -0.9023006
0.056                  0.9997454      -0.9712806
0.06                   0.9997097        -1.04017
0.064                  0.9996719       -1.108962
0.068                  0.9996321       -1.177654
0.072                  0.9995908        -1.24624
0.076                  0.9995478       -1.314716
0.08                   0.9995031       -1.383079
0.084                  0.9994571       -1.451324
0.088                  0.9994097       -1.519448
0.092                  0.9993613       -1.587449
0.096                  0.9993118       -1.655324
0.1                    0.9992613        -1.72307
0.104                  0.9992099       -1.790686
0.108                   0.999158       -1.858171
0.112                  0.9991054       -1.925523
0.116                  0.9990526       -1.992741
0.12                   0.9989994       -2.059827
0.124                  0.9989462       -2.126778
0.128                  0.9988929       -2.193598
0.132                  0.9988399       -2.260285
0.136                  0.9987871       -2.326842
0.14                   0.9987347       -2.393271
0.144                   0.998683       -2.459572
0.148                  0.9986319        -2.52575
0.152                  0.9985816       -2.591807
0.156                  0.9985324       -2.657747
0.16                   0.9984842       -2.723573
0.164                  0.9984373        -2.78929
0.168                  0.9983917       -2.854901
0.172                  0.9983476       -2.920413
0.176                   0.998305       -2.985828
0.18                   0.9982643       -3.051155
0.184                  0.9982251       -3.116398
0.188                  0.9981881       -3.181564
0.192                   0.998153       -3.246659
0.196                  0.9981199        -3.31169
0.2                    0.9980892       -3.376664
0.204                  0.9980606       -3.441588
0.208                  0.9980344        -3.50647
0.212                  0.9980105       -3.571318
0.216                  0.9979892       -3.636139
0.22                   0.9979704       -3.700942
0.224                  0.9979541       -3.765735
0.228                  0.9979405       -3.830527
0.232                  0.9979296       -3.895326
0.236                  0.9979214        -3.96014
0.24                   0.9979159       -4.024978
0.244                  0.9979131       -4.089852
0.248                  0.9979131       -4.154767
0.252                  0.9979158       -4.219733
0.256                  0.9979211        -4.28476
0.26                   0.9979293       -4.349856
0.264                  0.9979402       -4.415029
0.268                  0.9979538        -4.48029
0.272                  0.9979701       -4.545646
0.276                  0.9979887       -4.611107
0.28                   0.9980102        -4.67668
0.284                   0.998034       -4.742375
0.288                  0.9980603       -4.808198
0.292                   0.998089        -4.87416
0.296                  0.9981199       -4.940266
0.3                    0.9981531       -5.006526
0.304                  0.9981885       -5.072945
0.308                  0.9982258       -5.139532
0.312                  0.9982652       -5.206293
0.316                  0.9983063       -5.273234
0.32                   0.9983491       -5.340363
0.324                  0.9983937       -5.407684
0.328                  0.9984397       -5.475204
0.332                   0.998487       -5.542929
0.336                  0.9985356       -5.610861
0.34                   0.9985853       -5.679008
0.344                  0.9986361       -5.747371
0.348                  0.9986877       -5.815955
0.352                  0.9987401       -5.884766
0.356                  0.9987929       -5.953803
0.36                   0.9988463       -6.023071
0.364                  0.9988999       -6.092572
0.368                  0.9989537       -6.162307
0.372                  0.9990076       -6.232278
0.376                  0.9990612       -6.302485
0.38                   0.9991147        -6.37293
0.384                  0.9991676       -6.443613
0.388                    0.99922       -6.514534
0.392                  0.9992717        -6.58569
0.396                  0.9993226       -6.657081
0.4                    0.9993724       -6.728707
0.404                   0.999421       -6.800566
0.408                  0.9994685       -6.872654
0.412                  0.9995145       -6.944969
0.416                   0.999559       -7.017508
0.42                   0.9996019       -7.090268
0.424                  0.9996431       -7.163245
0.428                  0.9996822       -7.236435
0.432                  0.9997194       -7.309832
0.436                  0.9997545       -7.383435
0.44                   0.9997874       -7.457236
0.444                   0.999818        -7.53123
0.448                  0.9998462       -7.605412
0.452                  0.9998718       -7.679776
0.456                  0.9998949       -7.754314
0.46                   0.9999154       -7.829023
0.464                  0.9999332       -7.903895
0.468                  0.9999481       -7.978924
0.472                  0.9999603       -8.054101
0.476                  0.9999696        -8.12942
0.48                    0.999976       -8.204877
0.484                  0.9999795       -8.280459
0.488                    0.99998       -8.356163
0.492                  0.9999775        -8.43198
0.496                  0.9999719       -8.507904
0.5                    0.9999636       -8.583924
0.504                   0.999952       -8.660037
0.508                  0.9999375       -8.736234
0.512                  0.9999202       -8.812505
0.516                  0.9998998       -8.888849
0.52                   0.9998766       -8.965251
0.524                  0.9998506       -9.041708
0.528                  0.9998216       -9.118214
0.532                    0.99979       -9.194761
0.536                  0.9997557       -9.271341
0.54                   0.9997188       -9.347949
0.544                  0.9996793        -9.42458
0.548                  0.9996374       -9.501226
0.552                  0.9995932       -9.577881
0.556                  0.9995466       -9.654541
0.56                    0.999498       -9.731201
0.564                  0.9994473       -9.807854
0.568                  0.9993945       -9.884498
0.572                  0.9993401       -9.961127
0.576                  0.9992839       -10.03774
0.58                   0.9992261       -10.11433
0.584                  0.9991669       -10.19089
0.588                  0.9991064       -10.26743
0.592                  0.9990447       -10.34394
0.596                   0.998982       -10.42041
0.6                    0.9989184       -10.49685
0.604                  0.9988542       -10.57326
0.608                  0.9987893       -10.64963
0.612                  0.9987239       -10.72597
0.616                  0.9986584       -10.80227
0.62                   0.9985926       -10.87855
0.624                  0.9985269       -10.95478
0.628                  0.9984615       -11.03099
0.632                  0.9983963       -11.10717
0.636                  0.9983316       -11.18332
0.64                   0.9982676       -11.25945
0.644                  0.9982044       -11.33556
0.648                  0.9981421       -11.41165
0.652                  0.9980808       -11.48773
0.656                  0.9980208       -11.56381
0.66                   0.9979622       -11.63989
0.664                  0.9979051       -11.71597
0.668                  0.9978496       -11.79206
0.672                  0.9977959       -11.86817
0.676                  0.9977441       -11.94431
0.68                   0.9976942       -12.02048
0.684                  0.9976465       -12.09669
0.688                   0.997601       -12.17294
0.692                   0.997558       -12.24926
0.696                  0.9975172       -12.32564
0.7                    0.9974791       -12.40209
0.704                  0.9974435       -12.47863
0.708                  0.9974105       -12.55526
0.712                  0.9973804         -12.632
0.716                   0.997353       -12.70885
0.72                   0.9973285       -12.78582
0.724                  0.9973068       -12.86293
0.728                  0.9972881       -12.94018
0.732                  0.9972726       -13.01759
0.736                  0.9972598       -13.09517
0.74                   0.9972501       -13.17292
0.744                  0.9972434       -13.25087
0.748                  0.9972397       -13.32901
0.752                   0.997239       -13.40737
0.756                  0.9972413       -13.48595
0.76                   0.9972465       -13.56476
0.764                  0.9972547       -13.64382
0.768                  0.9972657       -13.72313
0.772                  0.9972796       -13.80271
0.776                  0.9972961       -13.88257
0.78                   0.9973153       -13.96272
0.784                  0.9973371       -14.04316
0.788                  0.9973614       -14.12392
0.792                  0.9973882       -14.20499
0.796                  0.9974173        -14.2864
0.8                    0.9974486       -14.36814
0.804                  0.9974819       -14.45023
0.808                  0.9975173       -14.53267
0.812                  0.9975545       -14.61548
0.816                  0.9975932       -14.69867
0.82                   0.9976338       -14.78223
0.824                  0.9976755       -14.86619
0.828                  0.9977188       -14.95053
0.832                  0.9977629       -15.03529
0.836                  0.9978082       -15.12045
0.84                    0.997854       -15.20603
0.844                  0.9979007       -15.29203
0.848                  0.9979477       -15.37845
0.852                   0.997995        -15.4653
0.856                  0.9980425       -15.55259
0.86                   0.9980897       -15.64031
0.864                  0.9981367       -15.72848
0.868                  0.9981834       -15.81708
0.872                  0.9982292       -15.90614
0.876                  0.9982745       -15.99564
0.88                   0.9983186       -16.08559
0.884                  0.9983616       -16.17598
0.888                  0.9984032       -16.26683
0.892                  0.9984434       -16.35812
0.896                  0.9984818       -16.44986
0.9                    0.9985182       -16.54205
0.904                  0.9985527       -16.63468
0.908                   0.998585       -16.72776
0.912                  0.9986148       -16.82127
0.916                  0.9986421       -16.91523
0.92                   0.9986667       -17.00961
0.924                  0.9986883       -17.10442
0.928                  0.9987071       -17.19966
0.932                  0.9987227       -17.29532
0.936                  0.9987351       -17.39139
0.94                    0.998744       -17.48787
0.944                  0.9987493       -17.58476
0.948                  0.9987511       -17.68204
0.952                  0.9987491       -17.77972
0.956                  0.9987433       -17.87777
0.96                   0.9987336       -17.97621
0.964                  0.9987198       -18.07501
0.968                   0.998702       -18.17418
0.972                    0.99868       -18.27371
0.976                  0.9986537       -18.37357
0.98                   0.9986233       -18.47379
0.984                  0.9985885       -18.57433
0.988                  0.9985495        -18.6752
0.992                  0.9985061       -18.77639
0.996                  0.9984583       -18.87788
1                      0.9984062       -18.97967
1.004                  0.9983497       -19.08176
1.008                   0.998289       -19.18413
1.012                  0.9982239       -19.28678
1.016                  0.9981546       -19.38969
1.02                    0.998081       -19.49286
1.024                  0.9980033       -19.59632
1.028                  0.9979216       -19.69997
1.032                  0.9978358        -19.8039
1.036                  0.9977459       -19.90805
1.04                   0.9976523       -20.01242
1.044                   0.997555       -20.11703
1.048                  0.9974539       -20.22183
1.052                  0.9973494       -20.32688
1.056                  0.9972415       -20.43209
1.06                   0.9971302       -20.53752
1.064                  0.9970159       -20.64312
1.068                  0.9968986       -20.74896
1.072                  0.9967784       -20.85496
1.076                  0.9966556       -20.96116
1.08                   0.9965301       -21.06754
1.084                  0.9964025       -21.17409
1.088                  0.9962725       -21.28084
1.092                  0.9961405       -21.38777
1.096                  0.9960068       -21.49484
1.1                    0.9958714       -21.60216
1.104                  0.9957346       -21.70961
1.108                  0.9955964       -21.81725
1.112                  0.9954572       -21.92509
1.116                  0.9953172       -22.03311
1.12                   0.9951764       -22.14133
1.124                  0.9950351       -22.24977
1.128                  0.9948933       -22.35837
1.132                  0.9947516        -22.4672
1.136                    0.99461       -22.57625
1.14                   0.9944685       -22.68552
1.144                  0.9943276       -22.79502
1.148                  0.9941872       -22.90475
1.152                  0.9940477       -23.01474
1.156                  0.9939092       -23.12498
1.16                   0.9937717       -23.23549
1.164                  0.9936356       -23.34628
1.168                  0.9935009       -23.45736
1.172                  0.9933679       -23.56873
1.176                  0.9932367       -23.68042
1.18                   0.9931074       -23.79245
1.184                  0.9929801       -23.90481
1.188                  0.9928549       -24.01753
1.192                   0.992732       -24.13062
1.196                  0.9926116        -24.2441
1.2                    0.9924936       -24.35797
1.204                  0.9923782       -24.47227
1.208                  0.9922654         -24.587
1.212                  0.9921552       -24.70218
1.216                   0.992048       -24.81783
1.22                   0.9919435       -24.93397
1.224                  0.9918419        -25.0506
1.228                  0.9917432       -25.16777
1.232                  0.9916471       -25.28548
1.236                  0.9915543       -25.40374
1.24                   0.9914641       -25.52258
1.244                  0.9913768       -25.64202
1.248                  0.9912922       -25.76209
1.252                  0.9912105       -25.88278
1.256                  0.9911314       -26.00414
1.26                   0.9910549       -26.12616
1.264                   0.990981       -26.24888
1.268                  0.9909095       -26.37232
1.272                  0.9908404       -26.49648
1.276                  0.9907733       -26.62141
1.28                   0.9907083       -26.74709
1.284                  0.9906453       -26.87357
1.288                   0.990584       -27.00085
1.292                  0.9905243       -27.12897
1.296                  0.9904659       -27.25792
1.3                    0.9904087       -27.38774
1.304                  0.9903527       -27.51843
1.308                  0.9902973       -27.65002
1.312                  0.9902425       -27.78253
1.316                   0.990188       -27.91595
1.32                   0.9901335       -28.05033
1.324                  0.9900789       -28.18566
1.328                  0.9900239       -28.32196
1.332                  0.9899682       -28.45925
1.336                  0.9899115       -28.59754
1.34                   0.9898536       -28.73684
1.344                  0.9897941       -28.87718
1.348                  0.9897327       -29.01854
1.352                  0.9896694       -29.16096
1.356                  0.9896033       -29.30444
1.36                   0.9895347       -29.44898
1.364                   0.989463       -29.59461
1.368                   0.989388       -29.74132
1.372                  0.9893093       -29.88913
1.376                  0.9892266       -30.03803
1.38                   0.9891396       -30.18806
1.384                  0.9890479       -30.33919
1.388                  0.9889513       -30.49145
1.392                  0.9888495       -30.64483
1.396                   0.988742       -30.79935
1.4                    0.9886287         -30.955
1.404                  0.9885093       -31.11178
1.408                  0.9883833        -31.2697
1.412                  0.9882506       -31.42877
1.416                  0.9881109       -31.58898
1.42                   0.9879637       -31.75032
1.424                  0.9878089       -31.91282
1.428                  0.9876461       -32.07645
1.432                  0.9874752       -32.24122
1.436                  0.9872958       -32.40714
1.44                   0.9871078       -32.57419
1.444                  0.9869108       -32.74238
1.448                  0.9867044       -32.91171
1.452                  0.9864888       -33.08216
1.456                  0.9862636       -33.25374
1.46                   0.9860285       -33.42645
1.464                  0.9857834       -33.60027
1.468                  0.9855281       -33.77521
1.472                  0.9852624       -33.95126
1.476                  0.9849864       -34.12841
1.48                   0.9846993       -34.30668
1.484                  0.9844016       -34.48603
1.488                   0.984093       -34.66649
1.492                  0.9837734       -34.84802
1.496                  0.9834425       -35.03064
1.5                    0.9831004       -35.21435
1.504                  0.9827471       -35.39912
1.508                  0.9823824       -35.58497
1.512                  0.9820063       -35.77188
1.516                  0.9816187       -35.95986
1.52                   0.9812198        -36.1489
1.524                  0.9808093       -36.33899
1.528                  0.9803873       -36.53014
1.532                  0.9799541       -36.72234
1.536                  0.9795093       -36.91559
1.54                   0.9790531       -37.10989
1.544                  0.9785857       -37.30524
1.548                  0.9781071       -37.50163
1.552                  0.9776172       -37.69909
1.556                  0.9771162       -37.89758
1.56                   0.9766043       -38.09713
1.564                  0.9760814       -38.29775
1.568                  0.9755479       -38.49942
1.572                  0.9750036       -38.70215
1.576                  0.9744487       -38.90596
1.58                   0.9738836       -39.11084
1.584                  0.9733082       -39.31682
1.588                  0.9727226       -39.52388
1.592                  0.9721271       -39.73206
1.596                  0.9715218       -39.94134
1.6                    0.9709067       -40.15175
1.604                  0.9702823       -40.36331
1.608                  0.9696485       -40.57602
1.612                  0.9690056        -40.7899
1.616                  0.9683536       -41.00497
1.62                   0.9676929       -41.22124
1.624                  0.9670235       -41.43873
1.628                  0.9663455       -41.65747
1.632                  0.9656593       -41.87748
1.636                  0.9649648       -42.09878
1.64                   0.9642621        -42.3214
1.644                  0.9635516       -42.54536
1.648                  0.9628333       -42.77068
1.652                  0.9621072       -42.99741
1.656                  0.9613736       -43.22555
1.66                   0.9606326       -43.45517
1.664                  0.9598842       -43.68626
1.668                  0.9591284       -43.91889
1.672                  0.9583654       -44.15307
1.676                   0.957595       -44.38886
1.68                   0.9568176       -44.62627
1.684                  0.9560332       -44.86536
1.688                  0.9552413       -45.10617
1.692                  0.9544425       -45.34872
1.696                  0.9536364       -45.59308
1.7                     0.952823       -45.83928
1.704                  0.9520023       -46.08737
1.708                  0.9511739       -46.33739
1.712                  0.9503381        -46.5894
1.716                  0.9494946       -46.84344
1.72                   0.9486432       -47.09955
1.724                  0.9477837        -47.3578
1.728                  0.9469158       -47.61822
1.732                  0.9460394       -47.88088
1.736                  0.9451542       -48.14582
1.74                   0.9442598        -48.4131
1.744                   0.943356       -48.68278
1.748                  0.9424424       -48.95491
1.752                  0.9415187       -49.22954
1.756                  0.9405843       -49.50672
1.76                   0.9396389       -49.78654
1.764                  0.9386822       -50.06902
1.768                  0.9377134       -50.35424
1.772                  0.9367321       -50.64226
1.776                  0.9357378       -50.93312
1.78                   0.9347298       -51.22689
1.784                  0.9337077       -51.52362
1.788                  0.9326709       -51.82339
1.792                  0.9316185       -52.12622
1.796                  0.9305498       -52.43221
1.8                    0.9294644        -52.7414
1.804                  0.9283612       -53.05386
1.808                  0.9272398       -53.36963
1.812                   0.926099       -53.68879
1.816                  0.9249383       -54.01138
1.82                   0.9237567       -54.33747
1.824                  0.9225535       -54.66711
1.828                  0.9213276       -55.00036
1.832                  0.9200782       -55.33728
1.836                  0.9188043       -55.67793
1.84                   0.9175052       -56.02236
1.844                  0.9161796       -56.37062
1.848                  0.9148267       -56.72277
1.852                  0.9134453       -57.07887
1.856                  0.9120346       -57.43897
1.86                   0.9105934       -57.80313
1.864                  0.9091207       -58.17139
1.868                  0.9076155        -58.5438
1.872                  0.9060765       -58.92044
1.876                  0.9045028       -59.30132
1.88                   0.9028932       -59.68652
1.884                  0.9012467       -60.07607
1.888                  0.8995621       -60.47002
1.892                  0.8978382       -60.86844
1.896                  0.8960737       -61.27136
1.9                    0.8942679       -61.67883
1.904                  0.8924195       -62.09088
1.908                  0.8905272       -62.50758
1.912                  0.8885899       -62.92896
1.916                  0.8866066       -63.35507
1.92                    0.884576       -63.78594
1.924                  0.8824971       -64.22162
1.928                  0.8803688       -64.66215
1.932                  0.8781897       -65.10759
1.936                   0.875959       -65.55794
1.94                   0.8736755       -66.01327
1.944                   0.871338       -66.47362
1.948                  0.8689455       -66.93903
1.952                   0.866497       -67.40952
1.956                  0.8639914       -67.88515
1.96                   0.8614277       -68.36593
1.964                  0.8588048       -68.85192
1.968                  0.8561219       -69.34315
1.972                  0.8533778       -69.83968
1.976                  0.8505718       -70.34151
1.98                   0.8477027       -70.84869
1.984                  0.8447697       -71.36128
1.988                  0.8417721       -71.87929
1.992                  0.8387089       -72.40278
1.996                  0.8355793       -72.93176
2                      0.8323826        -73.4663
2.004                  0.8291179       -74.00642
2.008                  0.8257845       -74.55218
2.012                  0.8223818       -75.10359
2.016                  0.8189092       -75.66071
2.02                    0.815366       -76.22358
2.024                  0.8117516       -76.79224
2.028                  0.8080656       -77.36674
2.032                  0.8043073       -77.94713
2.036                  0.8004765       -78.53344
2.04                   0.7965726       -79.12573
2.044                  0.7925951       -79.72404
2.048                   0.788544       -80.32843
2.052                  0.7844189       -80.93895
2.056                  0.7802194       -81.55566
2.06                   0.7759456       -82.17863
2.064                   0.771597       -82.80788
2.068                  0.7671737       -83.44353
2.072                  0.7626757       -84.08559
2.076                   0.758103       -84.73415
2.08                   0.7534557       -85.38929
2.084                  0.7487337       -86.05105
2.088                  0.7439373       -86.71953
2.092                  0.7390667       -87.39482
2.096                  0.7341222       -88.07702
2.1                    0.7291041       -88.76616
2.104                  0.7240128       -89.46237
2.108                  0.7188487       -90.16577
2.112                  0.7136122       -90.87641
2.116                  0.7083042       -91.59443
2.12                   0.7029249       -92.31993
2.124                  0.6974752       -93.05303
2.128                  0.6919558       -93.79386
2.132                  0.6863675       -94.54255
2.136                  0.6807112       -95.29921
2.14                   0.6749877       -96.06402
2.144                   0.669198       -96.83712
2.148                  0.6633434       -97.61864
2.152                  0.6574247       -98.40879
2.156                  0.6514432       -99.20772
2.16                   0.6454003       -100.0156
2.164                   0.639297       -100.8326
2.168                  0.6331352       -101.6591
2.172                  0.6269157       -102.4951
2.176                  0.6206407       -103.3408
2.18                   0.6143113       -104.1966
2.184                  0.6079295       -105.0628
2.188                   0.601497       -105.9394
2.192                  0.5950155       -106.8269
2.196                  0.5884871       -107.7254
2.2                    0.5819137       -108.6354
2.204                  0.5752975       -109.5571
2.208                  0.5686406       -110.4908
2.212                  0.5619452        -111.437
2.216                  0.5552138        -112.396
2.22                   0.5484489       -113.3681
2.224                  0.5416528       -114.3537
2.228                  0.5348283       -115.3534
2.232                  0.5279782       -116.3676
2.236                  0.5211053       -117.3966
2.24                   0.5142125       -118.4411
2.244                  0.5073029       -119.5015
2.248                  0.5003798       -120.5784
2.252                  0.4934465       -121.6723
2.256                  0.4865062       -122.7839
2.26                   0.4795628       -123.9137
2.264                  0.4726198       -125.0625
2.268                   0.465681       -126.2309
2.272                  0.4587507       -127.4196
2.276                  0.4518327       -128.6294
2.28                   0.4449315        -129.861
2.284                  0.4380514       -131.1152
2.288                  0.4311972        -132.393
2.292                  0.4243737       -133.6951
2.296                  0.4175859       -135.0225
2.3                    0.4108389        -136.376
2.304                  0.4041382       -137.7568
2.308                  0.3974895       -139.1656
2.312                  0.3908984       -140.6036
2.316                   0.384371       -142.0718
2.32                   0.3779136       -143.5711
2.324                  0.3715328       -145.1028
2.328                  0.3652352       -146.6678
2.332                  0.3590278       -148.2671
2.336                  0.3529178       -149.9019
2.34                   0.3469126       -151.5732
2.344                  0.3410199       -153.2819
2.348                  0.3352478       -155.0289
2.352                  0.3296043       -156.8153