! TOUCHSTONE file generated by CST MICROWAVE STUDIO
! Date and time: Sat May 14 11:21:38 2022
! Project name: AppElm_antenne_dipole_Alumina.cst
! Parameters = {L=33; e=0.035; f=2.45e+09; h=1.6; i=0.8; l1=2; lambda=122.449; ls=30; wl=1.7; ws=72}
! Header version: 2018
! Port assignment regex: !\s*Touchstone port\s*([0-9]+)\s*=\s*(CST MWS port|CST DS port)\s*([0-9]+|Zmin|Zmax)\s*\(\"(.*)\"\)(\s*mode\s*([0-9]+))?.*
! Touchstone port assignment:
! Touchstone port 1 = CST MWS port 1 ("")
# GHz S MA R 50
0                              1              -0
0.004                  0.9999984     -0.06990707
0.008                   0.999994      -0.1398062
0.012                  0.9999865      -0.2096894
0.016                   0.999976      -0.2795488
0.02                   0.9999627      -0.3493766
0.024                  0.9999464       -0.419165
0.028                  0.9999273      -0.4889063
0.032                  0.9999053      -0.5585932
0.036                  0.9998806      -0.6282181
0.04                   0.9998533      -0.6977741
0.044                  0.9998232      -0.7672539
0.048                  0.9997907      -0.8366508
0.052                  0.9997558      -0.9059584
0.056                  0.9997183      -0.9751704
0.06                   0.9996787       -1.044281
0.064                  0.9996369       -1.113283
0.068                  0.9995929       -1.182173
0.072                  0.9995472       -1.250945
0.076                  0.9994996       -1.319594
0.08                   0.9994501       -1.388116
0.084                  0.9993991       -1.456507
0.088                  0.9993467       -1.524762
0.092                   0.999293       -1.592879
0.096                   0.999238       -1.660855
0.1                    0.9991821       -1.728687
0.104                  0.9991254       -1.796373
0.108                  0.9990678       -1.863912
0.112                  0.9990095       -1.931302
0.116                  0.9989511       -1.998541
0.12                   0.9988921       -2.065631
0.124                  0.9988331       -2.132571
0.128                   0.998774       -2.199362
0.132                  0.9987151       -2.266004
0.136                  0.9986567       -2.332498
0.14                   0.9985986       -2.398848
0.144                  0.9985412       -2.465055
0.148                  0.9984844       -2.531121
0.152                  0.9984287       -2.597051
0.156                  0.9983739       -2.662847
0.16                   0.9983205       -2.728513
0.164                  0.9982684       -2.794055
0.168                  0.9982176       -2.859477
0.172                  0.9981686       -2.924783
0.176                  0.9981213       -2.989981
0.18                   0.9980759       -3.055075
0.184                  0.9980324       -3.120072
0.188                  0.9979909        -3.18498
0.192                  0.9979518       -3.249804
0.196                   0.997915       -3.314553
0.2                    0.9978805       -3.379233
0.204                  0.9978486       -3.443854
0.208                  0.9978192       -3.508423
0.212                  0.9977926       -3.572948
0.216                  0.9977686       -3.637439
0.22                   0.9977475       -3.701904
0.224                  0.9977291       -3.766352
0.228                  0.9977138       -3.830794
0.232                  0.9977014       -3.895237
0.236                  0.9976918       -3.959691
0.24                   0.9976854       -4.024167
0.244                   0.997682       -4.088672
0.248                  0.9976815        -4.15322
0.252                  0.9976842       -4.217817
0.256                  0.9976898       -4.282474
0.26                   0.9976986       -4.347201
0.264                  0.9977102       -4.412008
0.268                  0.9977248       -4.476904
0.272                  0.9977425       -4.541899
0.276                   0.997763       -4.607002
0.28                   0.9977862       -4.672223
0.284                  0.9978124        -4.73757
0.288                  0.9978412       -4.803053
0.292                  0.9978727       -4.868681
0.296                  0.9979067       -4.934463
0.3                    0.9979432       -5.000405
0.304                   0.997982       -5.066518
0.308                  0.9980232       -5.132806
0.312                  0.9980665       -5.199281
0.316                   0.998112       -5.265948
0.32                   0.9981592       -5.332813
0.324                  0.9982083       -5.399885
0.328                  0.9982592       -5.467168
0.332                  0.9983115       -5.534669
0.336                  0.9983653       -5.602392
0.34                   0.9984203       -5.670344
0.344                  0.9984766       -5.738528
0.348                  0.9985337       -5.806949
0.352                  0.9985917       -5.875611
0.356                  0.9986504       -5.944517
0.36                   0.9987096       -6.013669
0.364                  0.9987691        -6.08307
0.368                  0.9988289       -6.152723
0.372                  0.9988888       -6.222629
0.376                  0.9989485       -6.292788
0.38                    0.999008       -6.363201
0.384                  0.9990669       -6.433869
0.388                  0.9991253       -6.504792
0.392                   0.999183       -6.575968
0.396                  0.9992398       -6.647395
0.4                    0.9992955       -6.719074
0.404                  0.9993499       -6.791001
0.408                  0.9994032       -6.863174
0.412                  0.9994547       -6.935591
0.416                  0.9995047       -7.008246
0.42                   0.9995529       -7.081138
0.424                  0.9995992       -7.154261
0.428                  0.9996436       -7.227611
0.432                  0.9996855       -7.301185
0.436                  0.9997251       -7.374975
0.44                   0.9997626       -7.448976
0.444                  0.9997973       -7.523183
0.448                  0.9998294       -7.597589
0.452                   0.999859       -7.672187
0.456                  0.9998855       -7.746974
0.46                   0.9999093       -7.821938
0.464                  0.9999301       -7.897073
0.468                   0.999948       -7.972372
0.472                  0.9999626       -8.047829
0.476                   0.999974       -8.123437
0.48                   0.9999824       -8.199182
0.484                  0.9999874       -8.275062
0.488                  0.9999892       -8.351066
0.492                  0.9999878       -8.427187
0.496                   0.999983       -8.503416
0.5                    0.9999749       -8.579746
0.504                  0.9999637       -8.656166
0.508                  0.9999491        -8.73267
0.512                  0.9999311       -8.809248
0.516                    0.99991       -8.885895
0.52                   0.9998856       -8.962601
0.524                  0.9998582       -9.039354
0.528                  0.9998275       -9.116153
0.532                  0.9997938       -9.192987
0.536                  0.9997573       -9.269849
0.54                   0.9997177       -9.346731
0.544                  0.9996753       -9.423626
0.548                  0.9996303       -9.500528
0.552                  0.9995826       -9.577429
0.556                  0.9995325       -9.654326
0.56                   0.9994799       -9.731209
0.564                   0.999425       -9.808076
0.568                  0.9993679       -9.884921
0.572                  0.9993088       -9.961735
0.576                  0.9992478       -10.03852
0.58                   0.9991849       -10.11527
0.584                  0.9991205       -10.19197
0.588                  0.9990546       -10.26864
0.592                  0.9989875       -10.34525
0.596                   0.998919       -10.42182
0.6                    0.9988497       -10.49834
0.604                  0.9987794       -10.57481
0.608                  0.9987085       -10.65122
0.612                  0.9986371       -10.72758
0.616                  0.9985653       -10.80389
0.62                   0.9984934       -10.88014
0.624                  0.9984214       -10.95635
0.628                  0.9983495        -11.0325
0.632                  0.9982781       -11.10861
0.636                  0.9982071       -11.18467
0.64                   0.9981368       -11.26068
0.644                  0.9980673       -11.33666
0.648                  0.9979989       -11.41261
0.652                  0.9979315       -11.48852
0.656                  0.9978655       -11.56441
0.66                    0.997801       -11.64028
0.664                  0.9977381       -11.71614
0.668                   0.997677       -11.79199
0.672                  0.9976177       -11.86784
0.676                  0.9975605        -11.9437
0.68                   0.9975056       -12.01957
0.684                   0.997453       -12.09547
0.688                  0.9974027        -12.1714
0.692                  0.9973551       -12.24737
0.696                  0.9973102       -12.32339
0.7                     0.997268       -12.39948
0.704                  0.9972286       -12.47563
0.708                  0.9971921       -12.55186
0.712                  0.9971588       -12.62819
0.716                  0.9971286       -12.70462
0.72                   0.9971015       -12.78116
0.724                  0.9970775       -12.85783
0.728                  0.9970569       -12.93464
0.732                  0.9970395       -13.01159
0.736                  0.9970255       -13.08871
0.74                   0.9970148       -13.16599
0.744                  0.9970075       -13.24346
0.748                  0.9970035       -13.32113
0.752                  0.9970029       -13.39901
0.756                  0.9970056        -13.4771
0.76                   0.9970116       -13.55543
0.764                  0.9970209       -13.63401
0.768                  0.9970333       -13.71284
0.772                   0.997049       -13.79194
0.776                  0.9970678       -13.87132
0.78                   0.9970894       -13.95099
0.784                  0.9971142       -14.03097
0.788                  0.9971417       -14.11126
0.792                   0.997172       -14.19188
0.796                   0.997205       -14.27283
0.8                    0.9972404       -14.35413
0.804                  0.9972783       -14.43579
0.808                  0.9973184       -14.51781
0.812                  0.9973608       -14.60021
0.816                   0.997405         -14.683
0.82                   0.9974511       -14.76618
0.824                  0.9974988       -14.84976
0.828                  0.9975482       -14.93375
0.832                  0.9975989       -15.01816
0.836                  0.9976507         -15.103
0.84                   0.9977035       -15.18826
0.844                  0.9977572       -15.27397
0.848                  0.9978114       -15.36011
0.852                   0.997866       -15.44671
0.856                   0.997921       -15.53375
0.86                   0.9979761       -15.62125
0.864                  0.9980309       -15.70921
0.868                  0.9980854       -15.79764
0.872                  0.9981394       -15.88652
0.876                  0.9981926       -15.97588
0.88                   0.9982448        -16.0657
0.884                   0.998296       -16.15599
0.888                  0.9983458       -16.24675
0.892                  0.9983941       -16.33798
0.896                  0.9984406       -16.42967
0.9                    0.9984852       -16.52184
0.904                  0.9985277       -16.61446
0.908                  0.9985679       -16.70755
0.912                  0.9986056       -16.80109
0.916                  0.9986407        -16.8951
0.92                   0.9986729       -16.98955
0.924                  0.9987022       -17.08445
0.928                  0.9987282       -17.17979
0.932                  0.9987509       -17.27557
0.936                  0.9987701       -17.37178
0.94                   0.9987858       -17.46841
0.944                  0.9987977       -17.56547
0.948                  0.9988058       -17.66293
0.952                  0.9988099       -17.76081
0.956                  0.9988099       -17.85907
0.96                   0.9988055       -17.95773
0.964                   0.998797       -18.05677
0.968                   0.998784       -18.15619
0.972                  0.9987667       -18.25596
0.976                  0.9987448        -18.3561
0.98                   0.9987183       -18.45658
0.984                  0.9986871       -18.55741
0.988                  0.9986513       -18.65856
0.992                  0.9986107       -18.76004
0.996                  0.9985656       -18.86182
1                      0.9985157       -18.96391
1.004                   0.998461       -19.06629
1.008                  0.9984019       -19.16894
1.012                  0.9983379       -19.27191
1.016                  0.9982693       -19.37513
1.02                   0.9981961       -19.47857
1.024                  0.9981184       -19.58231
1.028                  0.9980362       -19.68626
1.032                  0.9979497       -19.79043
1.036                  0.9978589       -19.89488
1.04                   0.9977638       -19.99952
1.044                  0.9976647       -20.10435
1.048                  0.9975615       -20.20943
1.052                  0.9974546       -20.31467
1.056                  0.9973438        -20.4201
1.06                   0.9972296       -20.52572
1.064                  0.9971119       -20.63153
1.068                  0.9969909       -20.73751
1.072                  0.9968666       -20.84368
1.076                  0.9967396       -20.95001
1.08                   0.9966097       -21.05648
1.084                  0.9964774       -21.16314
1.088                  0.9963425       -21.26996
1.092                  0.9962055       -21.37692
1.096                  0.9960664       -21.48408
1.1                    0.9959255       -21.59136
1.104                  0.9957831       -21.69879
1.108                  0.9956392       -21.80643
1.112                  0.9954941       -21.91419
1.116                   0.995348       -22.02213
1.12                   0.9952012       -22.13021
1.124                  0.9950539       -22.23848
1.128                   0.994906       -22.34696
1.132                  0.9947582        -22.4556
1.136                  0.9946104       -22.56443
1.14                   0.9944629       -22.67345
1.144                  0.9943159       -22.78267
1.148                  0.9941697       -22.89211
1.152                  0.9940243       -23.00176
1.156                    0.99388       -23.11165
1.16                   0.9937371       -23.22178
1.164                  0.9935956       -23.33215
1.168                  0.9934557        -23.4428
1.172                  0.9933177       -23.55371
1.176                  0.9931817       -23.66492
1.18                   0.9930479       -23.77643
1.184                  0.9929163       -23.88825
1.188                  0.9927874        -24.0004
1.192                   0.992661       -24.11291
1.196                  0.9925373       -24.22578
1.2                    0.9924164       -24.33902
1.204                  0.9922985       -24.45266
1.208                  0.9921836       -24.56672
1.212                  0.9920719       -24.68121
1.216                  0.9919634       -24.79614
1.22                   0.9918581       -24.91155
1.224                  0.9917561       -25.02745
1.228                  0.9916574       -25.14385
1.232                  0.9915622       -25.26078
1.236                  0.9914703       -25.37826
1.24                   0.9913818        -25.4963
1.244                  0.9912968       -25.61493
1.248                  0.9912149       -25.73417
1.252                  0.9911363       -25.85403
1.256                  0.9910612       -25.97455
1.26                    0.990989       -26.09573
1.264                    0.99092       -26.21761
1.268                  0.9908539       -26.34019
1.272                  0.9907908       -26.46351
1.276                  0.9907305       -26.58757
1.28                   0.9906727       -26.71241
1.284                  0.9906174       -26.83805
1.288                  0.9905643       -26.96449
1.292                  0.9905135       -27.09176
1.296                  0.9904646       -27.21988
1.3                    0.9904174       -27.34888
1.304                  0.9903718       -27.47876
1.308                  0.9903275       -27.60954
1.312                  0.9902843       -27.74125
1.316                  0.9902419        -27.8739
1.32                   0.9902002        -28.0075
1.324                  0.9901587       -28.14208
1.328                  0.9901173       -28.27766
1.332                  0.9900756       -28.41424
1.336                  0.9900336       -28.55183
1.34                   0.9899906       -28.69046
1.344                  0.9899465       -28.83013
1.348                   0.989901       -28.97087
1.352                  0.9898537       -29.11267
1.356                  0.9898044       -29.25556
1.36                   0.9897527       -29.39954
1.364                  0.9896982       -29.54463
1.368                  0.9896408       -29.69083
1.372                  0.9895799       -29.83815
1.376                  0.9895153        -29.9866
1.38                   0.9894465       -30.13619
1.384                  0.9893735       -30.28692
1.388                  0.9892957        -30.4388
1.392                  0.9892128       -30.59183
1.396                  0.9891245       -30.74603
1.4                    0.9890304       -30.90138
1.404                  0.9889302        -31.0579
1.408                  0.9888237       -31.21559
1.412                  0.9887103       -31.37445
1.416                    0.98859       -31.53448
1.42                   0.9884623       -31.69567
1.424                  0.9883269       -31.85803
1.428                  0.9881835       -32.02157
1.432                  0.9880319       -32.18628
1.436                  0.9878715       -32.35215
1.44                   0.9877027       -32.51918
1.444                  0.9875246       -32.68737
1.448                   0.987337       -32.85673
1.452                  0.9871401       -33.02723
1.456                  0.9869333       -33.19888
1.46                   0.9867164       -33.37168
1.464                  0.9864893       -33.54561
1.468                  0.9862517       -33.72068
1.472                  0.9860034       -33.89688
1.476                  0.9857444       -34.07421
1.48                   0.9854744       -34.25265
1.484                  0.9851932        -34.4322
1.488                  0.9849008       -34.61285
1.492                  0.9845969       -34.79461
1.496                  0.9842816       -34.97746
1.5                    0.9839548        -35.1614
1.504                  0.9836162       -35.34642
1.508                   0.983266       -35.53251
1.512                  0.9829038       -35.71968
1.516                    0.98253       -35.90791
1.52                   0.9821443        -36.0972
1.524                  0.9817469       -36.28755
1.528                  0.9813375       -36.47894
1.532                  0.9809164       -36.67138
1.536                  0.9804835       -36.86486
1.54                   0.9800388        -37.0594
1.544                  0.9795826       -37.25496
1.548                  0.9791146       -37.45157
1.552                  0.9786352       -37.64921
1.556                  0.9781443       -37.84789
1.56                   0.9776422        -38.0476
1.564                  0.9771289       -38.24835
1.568                  0.9766045       -38.45015
1.572                  0.9760692       -38.65298
1.576                  0.9755232       -38.85687
1.58                   0.9749665       -39.06181
1.584                  0.9743993        -39.2678
1.588                   0.973822       -39.47487
1.592                  0.9732346         -39.683
1.596                  0.9726372       -39.89222
1.6                      0.97203       -40.10254
1.604                  0.9714133       -40.31397
1.608                  0.9707874       -40.52651
1.612                  0.9701523       -40.74019
1.616                  0.9695081       -40.95502
1.62                   0.9688553       -41.17102
1.624                  0.9681939        -41.3882
1.628                  0.9675242       -41.60658
1.632                  0.9668462        -41.8262
1.636                  0.9661602       -42.04706
1.64                   0.9654665       -42.26921
1.644                  0.9647652       -42.49265
1.648                  0.9640565       -42.71741
1.652                  0.9633404       -42.94354
1.656                  0.9626172       -43.17103
1.66                    0.961887       -43.39996
1.664                    0.96115       -43.63032
1.668                  0.9604061       -43.86217
1.672                  0.9596558       -44.09553
1.676                  0.9588989       -44.33045
1.68                   0.9581354       -44.56696
1.684                  0.9573655       -44.80512
1.688                  0.9565893       -45.04494
1.692                  0.9558068       -45.28647
1.696                  0.9550179       -45.52977
1.7                    0.9542228       -45.77487
1.704                  0.9534212       -46.02183
1.708                  0.9526131       -46.27068
1.712                  0.9517985       -46.52149
1.716                  0.9509773       -46.77429
1.72                   0.9501493       -47.02914
1.724                  0.9493145       -47.28609
1.728                  0.9484724        -47.5452
1.732                  0.9476232       -47.80651
1.736                  0.9467664       -48.07009
1.74                   0.9459017         -48.336
1.744                   0.945029       -48.60426
1.748                  0.9441479       -48.87497
1.752                  0.9432579       -49.14817
1.756                   0.942359       -49.42393
1.76                   0.9414506       -49.70228
1.764                   0.940532       -49.98332
1.768                   0.939603       -50.26709
1.772                  0.9386631       -50.55365
1.776                  0.9377118       -50.84306
1.78                   0.9367485       -51.13538
1.784                  0.9357724       -51.43069
1.788                  0.9347833       -51.72903
1.792                  0.9337802       -52.03048
1.796                  0.9327627       -52.33509
1.8                    0.9317297       -52.64293
1.804                   0.930681       -52.95405
1.808                  0.9296154       -53.26852
1.812                  0.9285323       -53.58642
1.816                  0.9274308       -53.90778
1.82                   0.9263102       -54.23268
1.824                  0.9251695       -54.56117
1.828                  0.9240078       -54.89334
1.832                  0.9228243        -55.2292
1.836                  0.9216178       -55.56887
1.84                   0.9203876       -55.91236
1.844                  0.9191326       -56.25975
1.848                  0.9178519        -56.6111
1.852                  0.9165442       -56.96646
1.856                  0.9152087       -57.32589
1.86                   0.9138443       -57.68945
1.864                  0.9124497       -58.05722
1.868                  0.9110241       -58.42919
1.872                  0.9095662       -58.80548
1.876                  0.9080748       -59.18611
1.88                    0.906549       -59.57114
1.884                  0.9049875       -59.96062
1.888                  0.9033891        -60.3546
1.892                  0.9017528       -60.75315
1.896                  0.9000772       -61.15629
1.9                    0.8983612       -61.56411
1.904                  0.8966035       -61.97661
1.908                  0.8948032       -62.39387
1.912                   0.892959       -62.81592
1.916                  0.8910695       -63.24282
1.92                   0.8891338       -63.67461
1.924                  0.8871505       -64.11133
1.928                  0.8851186       -64.55303
1.932                  0.8830368       -64.99975
1.936                   0.880904       -65.45153
1.94                   0.8787189       -65.90842
1.944                  0.8764806       -66.37046
1.948                  0.8741878        -66.8377
1.952                  0.8718394       -67.31016
1.956                  0.8694344       -67.78789
1.96                   0.8669716       -68.27092
1.964                  0.8644498       -68.75933
1.968                  0.8618684        -69.2531
1.972                  0.8592259       -69.75232
1.976                  0.8565215         -70.257
1.98                   0.8537542       -70.76719
1.984                  0.8509231       -71.28292
1.988                  0.8480272       -71.80426
1.992                  0.8450656       -72.33122
1.996                  0.8420375       -72.86384
2                       0.838942       -73.40217
2.004                  0.8357782       -73.94625
2.008                  0.8325455       -74.49612
2.012                  0.8292431       -75.05182
2.016                  0.8258703        -75.6134
2.02                   0.8224266       -76.18088
2.024                   0.818911       -76.75434
2.028                  0.8153231        -77.3338
2.032                  0.8116625       -77.91933
2.036                  0.8079285       -78.51094
2.04                   0.8041207       -79.10872
2.044                  0.8002386        -79.7127
2.048                   0.796282       -80.32294
2.052                  0.7922504       -80.93947
2.056                  0.7881437       -81.56239
2.06                   0.7839616       -82.19175
2.064                  0.7797038       -82.82756
2.068                  0.7753703       -83.46993
2.072                  0.7709609       -84.11893
2.076                  0.7664758       -84.77461
2.08                   0.7619147       -85.43704
2.084                   0.757278       -86.10632
2.088                  0.7525658       -86.78248
2.092                   0.747778       -87.46565
2.096                  0.7429151       -88.15589
2.1                    0.7379774        -88.8533
2.104                  0.7329651       -89.55797
2.108                  0.7278787       -90.26999
2.112                  0.7227187       -90.98947
2.116                  0.7174857       -91.71653
2.12                   0.7121803       -92.45126
2.124                   0.706803       -93.19379
2.128                  0.7013547       -93.94425
2.132                  0.6958362       -94.70275
2.136                  0.6902483       -95.46946
2.14                   0.6845918       -96.24448
2.144                   0.678868       -97.02801
2.148                  0.6730776       -97.82016
2.152                   0.667222       -98.62114
2.156                  0.6613023       -99.43109
2.16                   0.6553198       -100.2502
2.164                  0.6492758       -101.0787
2.168                  0.6431718       -101.9167
2.172                  0.6370092       -102.7646
2.176                  0.6307897       -103.6224
2.18                   0.6245148       -104.4904
2.184                  0.6181863       -105.3689
2.188                   0.611806       -106.2582
2.192                  0.6053757       -107.1585
2.196                  0.5988976         -108.07
2.2                    0.5923736       -108.9932
2.204                  0.5858059       -109.9282
2.208                  0.5791966       -110.8755
2.212                  0.5725481       -111.8354
2.216                   0.565863       -112.8082
2.22                   0.5591436       -113.7943
2.224                  0.5523924       -114.7942
2.228                  0.5456126       -115.8082
2.232                  0.5388066       -116.8368
2.236                  0.5319776       -117.8804
2.24                   0.5251284       -118.9395
2.244                  0.5182623       -120.0147
2.248                  0.5113826       -121.1063
2.252                  0.5044927       -122.2151
2.256                   0.497596       -123.3416
2.26                   0.4906965       -124.4864
2.264                  0.4837977         -125.65
2.268                  0.4769036       -126.8332
2.272                  0.4700183       -128.0367
2.276                  0.4631461       -129.2611
2.28                   0.4562915       -130.5071
2.284                  0.4494588       -131.7756
2.288                   0.442653       -133.0674
2.292                  0.4358789       -134.3832
2.296                  0.4291417       -135.7238
2.3                    0.4224465       -137.0903
2.304                   0.415799       -138.4833
2.308                  0.4092047       -139.9039
2.312                  0.4026697        -141.353
2.316                  0.3961999       -142.8315
2.32                   0.3898018       -144.3403
2.324                  0.3834817       -145.8803
2.328                  0.3772466       -147.4526
2.332                  0.3711034       -149.0581
2.336                  0.3650592       -150.6976
2.34                   0.3591215       -152.3722
2.344                  0.3532979       -154.0824
2.348                  0.3475962       -155.8293
2.352                  0.3420245       -157.6134