! TOUCHSTONE file generated by CST MICROWAVE STUDIO
! Date and time: Tue Jun  7 21:31:21 2022
! Project name: AppElm_antenne_patch_FR4.cst
! Parameters = {L=45; W=58.5; e=0.035; h=1.6; lambda=0.190476; ls=120; w0=1.84; w1=0.533; ws=120; y0=20; y1=23.81}
! Header version: 2018
! Port assignment regex: !\s*Touchstone port\s*([0-9]+)\s*=\s*(CST MWS port|CST DS port)\s*([0-9]+|Zmin|Zmax)\s*\(\"(.*)\"\)(\s*mode\s*([0-9]+))?.*
! Touchstone port assignment:
! Touchstone port 1 = CST MWS port 1 ("")
# GHz S MA R 50
0                      0.9889315              -0
0.004                  0.9895985       -9.953017
0.008                  0.9915069        -19.8163
0.012                  0.9943923       -29.50462
0.016                  0.9978606       -38.94092
0.02                    1.001446       -48.05891
0.024                   1.004679       -56.80419
0.028                   1.007151       -65.13437
0.032                   1.008569        -73.0185
0.036                   1.008789       -80.43633
0.04                    1.007831       -87.37779
0.044                   1.005877        -93.8426
0.048                   1.003235       -99.84038
0.052                   1.000301       -105.3906
0.056                  0.9974977       -110.5223
0.06                   0.9952164       -115.2731
0.064                  0.9937572       -119.6869
0.068                  0.9932886       -123.8112
0.072                  0.9938252       -127.6933
0.076                  0.9952315       -131.3766
0.08                   0.9972485       -134.8974
0.084                  0.9995391       -138.2827
0.088                   1.001743       -141.5494
0.092                   1.003534       -144.7052
0.096                   1.004662         -147.75
0.1                     1.004992       -150.6786
0.104                   1.004517       -153.4834
0.108                    1.00335       -156.1574
0.112                   1.001708       -158.6966
0.116                  0.9998724       -161.1018
0.12                   0.9981435       -163.3801
0.124                  0.9967933       -165.5442
0.128                  0.9960236       -167.6121
0.132                  0.9959347       -169.6044
0.136                   0.996513        -171.542
0.14                   0.9976375       -173.4434
0.144                  0.9991032       -175.3226
0.148                   1.000658       -177.1875
0.152                   1.002047       -179.0397
0.156                    1.00305        179.1252
0.16                    1.003519        177.3158
0.164                   1.003397        175.5429
0.168                   1.002724        173.8177
0.172                    1.00163        172.1493
0.176                   1.000309        170.5431
0.18                   0.9989858        168.9997
0.184                  0.9978809        167.5144
0.188                  0.9971722         166.078
0.192                  0.9969666        164.6778
0.196                  0.9972841        163.3002
0.2                    0.9980562        161.9321
0.204                  0.9991399        160.5634
0.208                   1.000344        159.1883
0.212                   1.001463        157.8058
0.216                    1.00231        156.4198
0.22                     1.00275        155.0378
0.224                   1.002718        153.6697
0.228                    1.00223        152.3258
0.232                   1.001377        151.0153
0.236                    1.00031        149.7442
0.24                   0.9992148        148.5147
0.244                  0.9982761        147.3244
0.248                  0.9976509         146.167
0.252                  0.9974392        145.0329
0.256                  0.9976697        143.9113
0.26                   0.9982943        142.7914
0.264                  0.9991983        141.6649
0.268                   1.000222        140.5267
0.272                   1.001189         139.376
0.276                   1.001933         138.216
0.28                    1.002333        137.0534
0.284                   1.002324        135.8971
0.288                   1.001914        134.7566
0.292                   1.001177        133.6403
0.296                   1.000245        132.5541
0.3                    0.9992792        131.5006
0.304                  0.9984456        130.4781
0.308                  0.9978861        129.4815
0.312                  0.9976939        128.5025
0.316                  0.9978979        127.5315
0.32                    0.998458        126.5593
0.324                   0.999273        125.5781
0.328                   1.000199        124.5835
0.332                   1.001075        123.5747
0.336                   1.001749        122.5549
0.34                    1.002109        121.5301
0.344                   1.002095        120.5087
0.348                   1.001712        119.4995
0.352                   1.001029        118.5105
0.356                   1.000168        117.5473
0.36                   0.9992781        116.6122
0.364                  0.9985146         115.704
0.368                  0.9980099        114.8177
0.372                  0.9978507        113.9458
0.376                  0.9980622        113.0794
0.38                   0.9986059        112.2096
0.384                  0.9993847        111.3296
0.388                   1.000262        110.4351
0.392                   1.001084        109.5256
0.396                   1.001708        108.6044
0.4                     1.002027        107.6773
0.404                   1.001987        106.7524
0.408                   1.001596        105.8384
0.412                   1.000923        104.9427
0.416                   1.000087        104.0708
0.42                   0.9992332        103.2248
0.424                  0.9985116        102.4032
0.428                  0.9980482        101.6011
0.432                  0.9979241        100.8112
0.436                  0.9981601        100.0247
0.44                   0.9987141        99.23319
0.444                  0.9994881        98.43003
0.448                   1.000346        97.61146
0.452                   1.001137        96.77725
0.456                   1.001723         95.9307
0.46                    1.002002        95.07805
0.464                   1.001926        94.22732
0.468                   1.001507        93.38697
0.472                   1.000819        92.56439
0.476                  0.9999824        91.76467
0.48                    0.999144        90.98963
0.484                  0.9984511        90.23752
0.488                   0.998026        89.50322
0.492                  0.9979437        88.77914
0.496                  0.9982189        88.05654
0.5                     0.998803        87.32717
0.504                  0.9995926        86.58462
0.508                   1.000448        85.82552
0.512                   1.001219        85.05004
0.516                   1.001768        84.26195
0.52                    1.001999        83.46779
0.524                   1.001869        82.67581
0.528                     1.0014        81.89452
0.532                   1.000673        81.13126
0.536                  0.9998146        80.39076
0.54                   0.9989754        79.67447
0.544                  0.9983036        78.98011
0.548                  0.9979186        78.30212
0.552                  0.9978897        77.63249
0.556                  0.9982229        76.96228
0.56                   0.9988597        76.28325
0.564                  0.9996884        75.58918
0.568                   1.000563        74.87713
0.572                   1.001327        74.14783
0.576                   1.001846        73.40561
0.58                    1.002027        72.65754
0.584                   1.001836        71.91228
0.588                   1.001304        71.17856
0.592                   1.000523        70.46359
0.596                  0.9996293        69.77187
0.6                    0.9987806        69.10428
0.604                  0.9981273        68.45797
0.608                  0.9977865        67.82666
0.612                  0.9978203        67.20183
0.616                  0.9982245        66.57419
0.62                   0.9989286         65.9354
0.624                  0.9998086        65.27949
0.628                   1.000709        64.60398
0.632                   1.001468        63.91034
0.636                   1.001952         63.2036
0.64                    1.002072        62.49154
0.644                   1.001804        61.78336
0.648                   1.001192        61.08802
0.652                   1.000343        60.41267
0.656                  0.9994049        59.76147
0.66                   0.9985436        59.13465
0.664                  0.9979137         58.5285
0.668                  0.9976291        57.93593
0.672                  0.9977437        57.34767
0.676                  0.9982398        56.75402
0.68                   0.9990315        56.14646
0.684                  0.9999792        55.51934
0.688                   1.000915        54.87082
0.692                   1.001672        54.20315
0.696                   1.002114        53.52233
0.7                     1.002159        52.83704
0.704                   1.001795         52.1571
0.708                   1.001084        51.49181
0.712                   1.000146         50.8483
0.716                  0.9991475        50.23023
0.72                   0.9982646        49.63708
0.724                  0.9976561        49.06413
0.728                  0.9974328        48.50326
0.732                  0.9976382        47.94433
0.736                  0.9982384        47.37707
0.74                   0.9991291        46.79287
0.744                   1.000153        46.18639
0.748                   1.001127        45.55653
0.752                   1.001877        44.90656
0.756                   1.002267        44.24359
0.76                    1.002223         43.5773
0.764                   1.001747        42.91829
0.768                    1.00092        42.27619
0.772                  0.9998844        41.65804
0.776                   0.998822        41.06691
0.78                   0.9979221        40.50131
0.784                  0.9973477         39.9553
0.788                  0.9972051        39.41956
0.792                  0.9975238        38.88294
0.796                   0.998251        38.33453
0.8                    0.9992595        37.76566
0.804                    1.00037        37.17147
0.808                   1.001385        36.55176
0.812                    1.00212        35.91107
0.816                   1.002441         35.2578
0.82                    1.002284        34.60285
0.824                   1.001669        33.95768
0.828                   1.000701        33.33233
0.832                  0.9995463        32.73363
0.836                  0.9984075        32.16395
0.84                   0.9974886        31.62056
0.844                  0.9969567        31.09612
0.848                  0.9969115        30.57982
0.852                  0.9973664        30.05933
0.856                  0.9982448        29.52308
0.86                    0.999393        28.96231
0.864                   1.000607        28.37275
0.868                    1.00167        27.75534
0.872                   1.002389        27.11605
0.876                   1.002631        26.46485
0.88                    1.002346          25.814
0.884                   1.001576        25.17592
0.888                   1.000451        24.56106
0.892                  0.9991675        23.97598
0.896                  0.9979515        23.42212
0.9                     0.997022        22.89536
0.904                  0.9965498        22.38662
0.908                  0.9966259        21.88341
0.912                  0.9972431        21.37211
0.916                  0.9982964        20.84041
0.92                   0.9996009        20.27962
0.924                   1.000925        19.68622
0.928                   1.002029        19.06255
0.932                   1.002713        18.41632
0.936                   1.002847        17.75932
0.94                    1.002398         17.1054
0.944                   1.001435        16.46804
0.948                   1.000121        15.85808
0.952                  0.9986856         15.2817
0.956                  0.9973826        14.73913
0.96                   0.9964482        14.22451
0.964                  0.9960564        13.72669
0.968                  0.9962859        13.23119
0.972                  0.9971041        12.72283
0.976                  0.9983718        12.18853
0.98                   0.9998665        11.61969
0.984                   1.001322        11.01379
0.988                   1.002477        10.37485
0.992                    1.00312        9.712668
0.996                   1.003125        9.041181
1                       1.002481        8.376072
1.004                   1.001291        7.732105
1.008                  0.9997541        7.120532
1.012                    0.99814        6.547001
1.016                  0.9967352         6.01036
1.02                   0.9957953        5.502614
1.024                  0.9954967        5.010182
1.028                  0.9959032        4.516261
1.032                  0.9969514        4.003901
1.036                  0.9984608        3.459151
1.04                    1.000165         2.87364
1.044                    1.00176        2.246094
1.048                   1.002956        1.582555
1.052                    1.00353       0.8953197
1.056                   1.003368       0.2008434
1.06                    1.002482      -0.4830343
1.064                   1.001014        -1.14013
1.068                  0.9992129       -1.758772
1.072                  0.9973932       -2.334024
1.076                  0.9958804       -2.868837
1.08                   0.9949522       -3.373829
1.084                  0.9947869       -3.865595
1.088                  0.9954278       -4.363774
1.092                  0.9967725       -4.887433
1.096                  0.9985898       -5.451519
1.1                     1.000559       -6.064023
1.104                   1.002328       -6.724639
1.108                   1.003574       -7.424843
1.112                   1.004063       -8.149198
1.116                   1.003689        -8.87817
1.12                    1.002496       -9.591214
1.124                   1.000678       -10.27041
1.128                   0.998539       -10.90352
1.132                  0.9964535       -11.48643
1.136                  0.9947943       -12.02429
1.14                   0.9938678       -12.53095
1.144                   0.993855       -13.02676
1.148                  0.9947751        -13.5349
1.152                   0.996478       -14.07709
1.156                  0.9986695       -14.66949
1.16                    1.000963       -15.31975
1.164                   1.002946       -16.02563
1.168                   1.004255       -16.77545
1.172                   1.004641       -17.55007
1.176                   1.004009       -18.32609
1.18                    1.002444       -19.07967
1.184                   1.000197       -19.79063
1.188                  0.9976492       -20.44598
1.192                  0.9952453       -21.04266
1.196                  0.9934198       -21.58859
1.2                    0.9925152       -22.10177
1.204                  0.9927157       -22.60735
1.208                  0.9940095       -23.13305
1.212                  0.9961848       -23.70401
1.216                  0.9988661       -24.33799
1.22                    1.001579       -25.04211
1.224                   1.003836       -25.81165
1.228                   1.005218       -26.63088
1.232                   1.005452       -27.47577
1.236                   1.004458       -28.31782
1.24                    1.002372       -29.12875
1.244                  0.9995241       -29.88517
1.248                  0.9963911        -30.5729
1.252                  0.9935196          -31.19
1.256                  0.9914287       -31.74793
1.26                   0.9905145        -32.2702
1.264                   0.990972       -32.78858
1.268                  0.9927514       -33.33717
1.272                  0.9955614       -33.94604
1.276                  0.9989175       -34.63544
1.28                    1.002227       -35.41215
1.284                   1.004891       -36.26838
1.288                   1.006414       -37.18321
1.292                   1.006482       -38.12604
1.296                    1.00503       -39.06143
1.3                      1.00225       -39.95473
1.304                   0.998578       -40.77778
1.308                  0.9946242       -41.51412
1.312                  0.9910757       -42.16283
1.316                  0.9885771       -42.73989
1.32                   0.9876087       -43.27641
1.324                  0.9883889       -43.81356
1.328                   0.990823       -44.39487
1.332                  0.9945104       -45.05785
1.336                  0.9988123       -45.82682
1.34                    1.002963        -46.7085
1.344                   1.006202        -47.6911
1.348                   1.007906       -48.74645
1.352                   1.007698       -49.83457
1.356                   1.005512       -50.90964
1.36                    1.001624       -51.92709
1.364                  0.9966172        -52.8507
1.368                  0.9913028       -53.65945
1.372                   0.986594       -54.35282
1.376                  0.9833457       -54.95303
1.38                   0.9821921       -55.50297
1.384                  0.9834125       -56.05924
1.388                  0.9868604       -56.68153
1.392                  0.9919746       -57.42083
1.396                  0.9978711       -58.30963
1.4                     1.003497       -59.35617
1.404                   1.007811       -60.54361
1.408                   1.009955       -61.83326
1.412                   1.009403       -63.17052
1.416                   1.006054        -64.4926
1.42                    1.000272       -65.73728
1.424                  0.9928567       -66.85251
1.428                  0.9849506       -67.80611
1.432                  0.9778668       -68.59443
1.436                  0.9728684       -69.24747
1.44                   0.9709244       -69.82766
1.444                  0.9724949       -70.42047
1.448                  0.9774039       -71.11829
1.452                  0.9848402       -72.00152
1.456                   0.993486        -73.1228
1.46                    1.001742       -74.49836
1.464                    1.00799       -76.10698
1.468                   1.010852       -77.89482
1.472                   1.009407       -79.78348
1.476                   1.003346       -81.67947
1.48                    0.993066       -83.48508
1.484                  0.9796784       -85.11094
1.488                  0.9649291       -86.49172
1.492                   0.950995        -87.6043
1.496                  0.9401554         -88.485
1.5                    0.9343527        -89.2384
1.504                  0.9347273        -90.0291
1.508                  0.9412595       -91.05356
1.512                  0.9526468       -92.49995
1.516                  0.9664551       -94.51262
1.52                   0.9794766       -97.17404
1.524                  0.9881612       -100.5059
1.528                  0.9890147       -104.4828
1.532                  0.9789034       -109.0483
1.536                  0.9552631       -114.1294
1.54                   0.9162259       -119.6453
1.544                  0.8606851       -125.5113
1.548                  0.7883164       -131.6378
1.552                   0.699566       -137.9224
1.556                  0.5956149       -144.2292
1.56                   0.4783325       -150.3329
1.564                   0.350257       -155.7295
1.568                  0.2148328       -158.7107
1.572                 0.08029362       -146.0295
1.576                 0.08596756       -33.69875
1.58                   0.2212494       -22.97256
1.584                  0.3566978       -26.18713
1.588                  0.4846983       -31.68511
1.592                   0.601826       -37.87062
1.596                  0.7055236       -44.26123
1.6                    0.7938945       -50.63771
1.604                  0.8657289         -56.866
1.608                  0.9205548       -62.84354
1.612                   0.958679       -68.47921
1.616                  0.9812047       -73.68589
1.62                    0.990017       -78.37911
1.624                  0.9877259       -82.48099
1.628                  0.9775451       -85.92985
1.632                  0.9630885       -88.69507
1.636                  0.9480562        -90.7956
1.64                   0.9358179        -92.3159
1.644                  0.9289443       -93.40861
1.648                    0.92881       -94.27575
1.652                  0.9354129       -95.12955
1.656                   0.947498       -96.14774
1.66                   0.9629422       -97.44218
1.664                  0.9792567       -99.05012
1.668                  0.9940597       -100.9445
1.672                    1.00543       -103.0532
1.676                   1.012119       -105.2784
1.68                    1.013649        -107.513
1.684                   1.010302       -109.6531
1.688                   1.003044       -111.6097
1.692                  0.9933674       -113.3182
1.696                  0.9830717       -114.7482
1.7                    0.9739938       -115.9106
1.704                  0.9677087        -116.859
1.708                  0.9652593        -117.682
1.712                  0.9669784       -118.4864
1.716                  0.9724532       -119.3754
1.72                   0.9806433       -120.4282
1.724                  0.9901121        -121.687
1.728                  0.9993062       -123.1545
1.732                   1.006818       -124.7988
1.736                    1.01159       -126.5628
1.74                    1.013045       -128.3755
1.744                   1.011139       -130.1617
1.748                   1.006345       -131.8523
1.752                  0.9995667        -133.393
1.756                  0.9920011       -134.7524
1.76                     0.98495       -135.9273
1.764                  0.9796073       -136.9453
1.768                  0.9768549       -137.8606
1.772                  0.9771098        -138.745
1.776                  0.9802567       -139.6733
1.78                   0.9856877       -140.7088
1.784                  0.9924339       -141.8924
1.788                   0.999352       -143.2369
1.792                   1.005326       -144.7276
1.796                   1.009442       -146.3275
1.8                      1.01112       -147.9851
1.804                   1.010179       -149.6416
1.808                    1.00686       -151.2403
1.812                   1.001769       -152.7337
1.816                  0.9957896       -154.0908
1.82                   0.9899392       -155.3021
1.824                  0.9852048       -156.3822
1.828                   0.982375       -157.3683
1.832                  0.9819024       -158.3137
1.836                   0.983827       -159.2779
1.84                   0.9877767       -160.3155
1.844                  0.9930469       -161.4654
1.848                  0.9987353       -162.7458
1.852                   1.003903       -164.1517
1.856                    1.00773       -165.6583
1.86                    1.009634       -167.2257
1.864                   1.009359       -168.8059
1.868                   1.006996       -170.3497
1.872                    1.00297       -171.8138
1.876                  0.9979689       -173.1673
1.88                    0.992834       -174.3963
1.884                  0.9884265       -175.5072
1.888                  0.9854817       -176.5265
1.892                   0.984481        -177.496
1.896                  0.9855683        -178.466
1.9                    0.9885279       -179.4851
1.904                  0.9928306        179.4081
1.908                  0.9977351        178.1923
1.912                   1.002421        176.8653
1.916                   1.006125        175.4436
1.92                    1.008266        173.9588
1.924                   1.008523        172.4515
1.928                   1.006884        170.9657
1.932                   1.003641         169.542
1.936                  0.9993443        168.2116
1.94                   0.9947128        166.9917
1.944                  0.9905221        165.8818
1.948                  0.9874733        164.8632
1.952                  0.9860723        163.9019
1.956                  0.9865411        162.9545
1.96                   0.9887788         161.976
1.964                  0.9923847        160.9284
1.968                  0.9967344        159.7874
1.972                   1.001092        158.5458
1.976                   1.004737        157.2136
1.98                    1.007079        155.8162
1.984                   1.007751        154.3888
1.988                   1.006657        152.9714
1.992                   1.003991        151.6031
1.996                   1.000197        150.3157
2                      0.9959062        149.1288
2.004                  0.9918341        148.0468
2.008                  0.9886619        147.0568
2.012                  0.9869199        146.1308
2.016                  0.9868938          145.23
2.02                   0.9885741        144.3121
2.024                  0.9916594        143.3391
2.028                  0.9956144        142.2842
2.032                  0.9997649        141.1357
2.036                   1.003417        139.8987
2.04                    1.005969        138.5933
2.044                   1.007008        137.2508
2.048                    1.00637        135.9084
2.052                   1.004163         134.604
2.056                    1.00075        133.3704
2.06                   0.9966946        132.2298
2.064                  0.9926681        131.1906
2.068                  0.9893435        130.2447
2.072                   0.987278        129.3688
2.076                  0.9868168        128.5278
2.08                   0.9880288        127.6811
2.084                  0.9906963        126.7904
2.088                  0.9943544         125.826
2.092                  0.9983759        124.7724
2.096                   1.002081        123.6303
2.1                      1.00485        122.4155
2.104                   1.006222        121.1558
2.108                   1.005968        119.8867
2.112                   1.004122        118.6457
2.116                   1.000978        117.4668
2.12                   0.9970432        116.3753
2.124                   0.992964        115.3832
2.128                   0.989416        114.4869
2.132                  0.9869935        113.6672
2.136                  0.9861043        112.8917
2.14                    0.986895        112.1206
2.144                  0.9892238        111.3143
2.148                  0.9926865          110.44
2.152                   0.996688         109.478
2.156                   1.000548        108.4243
2.16                    1.003612        107.2907
2.164                   1.005363        106.1024
2.168                   1.005496        104.8937
2.172                   1.003968        103.7027
2.176                   1.001005        102.5655
2.18                   0.9970698        101.5112
2.184                  0.9927934        100.5564
2.188                  0.9888738         99.7023
2.192                  0.9859612        98.93361
2.196                  0.9845455        98.22029
2.2                    0.9848658        97.52252
2.204                  0.9868653         96.7979
2.208                  0.9901986        96.00916
2.212                  0.9942929        95.13086
2.216                  0.9984471        94.15348
2.22                     1.00195        93.08441
2.224                   1.004196        91.94616
2.228                   1.004779        90.77254
2.232                   1.003559        89.60342
2.236                   1.000682        88.47894
2.24                   0.9965656        87.43362
2.244                  0.9918407        86.49071
2.248                  0.9872553        85.65788
2.252                  0.9835559         84.9247
2.256                  0.9813597        84.26334
2.26                   0.9810425        83.63251
2.264                  0.9826651        82.98457
2.268                  0.9859556         82.2743
2.272                  0.9903535        81.46698
2.276                  0.9951036        80.54444
2.28                   0.9993827        79.50754
2.284                   1.002431        78.37539
2.288                   1.003672        77.18203
2.292                   1.002804        75.97131
2.296                  0.9998464        74.79072
2.3                    0.9951518         73.6848
2.304                  0.9893639        72.68843
2.308                   0.983332        71.82058
2.312                  0.9779859        71.07955
2.316                  0.9741845        70.44104
2.32                   0.9725624        69.86029
2.324                  0.9734039        69.27882
2.328                  0.9765749        68.63469
2.332                  0.9815312        67.87381
2.336                  0.9874001        66.95966
2.34                   0.9931199        65.87904
2.344                  0.9976047        64.64351
2.348                  0.9999113        63.28682
2.352                  0.9993789        61.86005