! TOUCHSTONE file generated by CST MICROWAVE STUDIO
! Date and time: Tue Jun  7 21:31:23 2022
! Project name: AppElm_antenne_patch_FR4.cst
! Parameters = {L=45; W=58.5; e=0.035; h=1.6; lambda=0.190476; ls=120; w0=2; w1=0.533; ws=120; y0=20; y1=23.81}
! Header version: 2018
! Port assignment regex: !\s*Touchstone port\s*([0-9]+)\s*=\s*(CST MWS port|CST DS port)\s*([0-9]+|Zmin|Zmax)\s*\(\"(.*)\"\)(\s*mode\s*([0-9]+))?.*
! Touchstone port assignment:
! Touchstone port 1 = CST MWS port 1 ("")
# GHz S MA R 50
0                      0.9887481              -0
0.004                  0.9894283       -9.961176
0.008                  0.9913737       -19.83148
0.012                  0.9943146       -29.52465
0.016                  0.9978474       -38.96277
0.02                    1.001497       -48.07892
0.024                   1.004783        -56.8183
0.028                   1.007291       -65.13826
0.032                   1.008722       -73.00779
0.036                   1.008931       -80.40669
0.04                    1.007942       -87.32496
0.044                    1.00594       -93.76261
0.048                   1.003244       -99.72955
0.052                   1.000257       -105.2458
0.056                  0.9974126       -110.3409
0.06                   0.9951064       -115.0532
0.064                  0.9936435       -119.4275
0.068                   0.993192        -123.512
0.072                  0.9937627       -127.3547
0.076                  0.9952139       -130.9995
0.08                   0.9972776        -134.483
0.084                  0.9996092       -137.8321
0.088                   1.001842       -141.0636
0.092                   1.003642       -144.1849
0.096                   1.004762       -147.1956
0.1                     1.005067         -150.09
0.104                   1.004553       -152.8602
0.108                   1.003343       -155.4989
0.112                    1.00166       -158.0022
0.116                  0.9997932       -160.3711
0.12                   0.9980479       -162.6129
0.124                  0.9966998       -164.7408
0.128                  0.9959499       -166.7732
0.132                   0.995895       -168.7312
0.136                  0.9965153       -170.6359
0.14                   0.9976823        -172.506
0.144                  0.9991835       -174.3553
0.148                   1.000761       -176.1915
0.152                   1.002154       -178.0157
0.156                   1.003143       -179.8233
0.16                    1.003582        178.3948
0.164                    1.00342        176.6498
0.168                   1.002702         174.953
0.172                   1.001567        173.3136
0.176                   1.000215        171.7368
0.18                   0.9988763        170.2228
0.184                  0.9977747        168.7666
0.188                   0.997087        167.3584
0.192                  0.9969169        165.9854
0.196                  0.9972777        164.6334
0.2                    0.9980936        163.2894
0.204                  0.9992141        161.9434
0.208                   1.000442        160.5898
0.212                   1.001567        159.2279
0.216                   1.002402        157.8621
0.22                    1.002814        156.5003
0.224                   1.002743        155.1528
0.228                   1.002211          153.83
0.232                   1.001319         152.541
0.236                   1.000222        151.2919
0.24                   0.9991121        150.0843
0.244                  0.9981765        148.9158
0.248                  0.9975716        147.7792
0.252                  0.9973939        146.6649
0.256                   0.997666        145.5616
0.26                   0.9983318        144.4586
0.264                  0.9992705        143.3475
0.268                   1.000315        142.2235
0.272                   1.001286        141.0862
0.276                   1.002018        139.9393
0.28                    1.002388        138.7899
0.284                    1.00234        137.6471
0.288                   1.001887        136.5207
0.292                   1.001112        135.4189
0.296                   1.000152        134.3477
0.3                    0.9991729        133.3091
0.304                  0.9983445        132.3013
0.308                  0.9978075        131.3185
0.312                  0.9976514        130.3521
0.316                  0.9978987        129.3925
0.32                    0.998502          128.43
0.324                  0.9993529        127.4572
0.328                   1.000301        126.4699
0.332                   1.001182        125.4676
0.336                   1.001843        124.4539
0.34                    1.002174        123.4354
0.344                    1.00212        122.4206
0.348                   1.001693        121.4186
0.352                   1.000971        120.4374
0.356                    1.00008        119.4823
0.36                   0.9991757        118.5556
0.364                  0.9984157        117.6553
0.368                  0.9979318        116.7764
0.372                  0.9978062        115.9107
0.376                  0.9980594        115.0491
0.38                   0.9986445        114.1829
0.384                  0.9994579        113.3049
0.388                   1.000356        112.4115
0.392                   1.001183        111.5024
0.396                   1.001795        110.5812
0.4                     1.002086        109.6543
0.404                   1.002008        108.7301
0.408                   1.001576        107.8172
0.412                   1.000866        106.9233
0.416                   1.000002        106.0536
0.42                   0.9991362        105.2099
0.424                  0.9984196        104.3904
0.428                  0.9979779        103.5897
0.432                  0.9978881        102.8001
0.436                  0.9981651        102.0127
0.44                   0.9987597        101.2189
0.444                  0.9995669        100.4122
0.448                   1.000445        99.58906
0.452                   1.001239        98.74968
0.456                    1.00181        97.89778
0.46                     1.00206        97.03995
0.464                   1.001944        96.18455
0.468                   1.001482        95.34016
0.472                   1.000755        94.51423
0.476                    0.99989        93.71163
0.48                   0.9990383        92.93393
0.484                  0.9983497        92.17893
0.488                  0.9979455        91.44112
0.492                  0.9978971        90.71254
0.496                  0.9982134        89.98425
0.5                    0.9988385        89.24791
0.504                  0.9996622        88.49716
0.508                   1.000539         87.7289
0.512                   1.001315         86.9437
0.516                   1.001852         86.1457
0.52                    1.002056        85.34183
0.524                   1.001889        84.54068
0.528                    1.00138        83.75087
0.532                   1.000616        82.97973
0.536                  0.9997303        82.23188
0.54                   0.9988785        81.50848
0.544                  0.9982108        80.80684
0.548                  0.9978458          80.121
0.552                  0.9978491        79.44262
0.556                  0.9982208        78.76255
0.56                   0.9988961        78.07246
0.564                  0.9997563        77.36622
0.568                   1.000649        76.64112
0.572                   1.001416         75.8983
0.576                   1.001922        75.14242
0.58                    1.002075        74.38099
0.584                   1.001847        73.62292
0.588                   1.001275        72.87706
0.592                   1.000458        72.15067
0.596                  0.9995383        71.44808
0.6                     0.998678        70.76987
0.604                  0.9980299         70.1128
0.608                  0.9977101        69.47021
0.612                  0.9977772        68.83323
0.616                  0.9982214        68.19237
0.62                   0.9989654        67.53917
0.624                  0.9998783        66.86778
0.628                   1.000799        66.17599
0.632                   1.001564        65.46554
0.636                   1.002036        64.74188
0.64                     1.00213        64.01319
0.644                   1.001826        63.28893
0.648                   1.001175         62.5782
0.652                   1.000289        61.88821
0.656                  0.9993229        61.22294
0.66                   0.9984474        60.58236
0.664                  0.9978191        59.96243
0.668                  0.9975517        59.35564
0.672                  0.9976954        58.75242
0.676                  0.9982276        58.14279
0.68                   0.9990558        57.51819
0.684                   1.000034        56.87305
0.688                    1.00099         56.2057
0.692                   1.001752        55.51876
0.696                   1.002183        54.81857
0.7                     1.002205        54.11415
0.704                   1.001808        53.41561
0.708                   1.001059        52.73242
0.712                   1.000088        52.07172
0.716                  0.9990629        51.43704
0.72                   0.9981672         50.8276
0.724                  0.9975611        50.23834
0.728                  0.9973554        49.66077
0.732                  0.9975902        49.08443
0.736                   0.998227         48.4988
0.74                   0.9991549         47.8952
0.744                    1.00021        47.26834
0.748                   1.001206        46.61731
0.752                   1.001962        45.94571
0.756                   1.002343        45.26098
0.76                    1.002275        44.57317
0.764                   1.001766        43.89315
0.768                     1.0009        43.23076
0.772                  0.9998271        42.59306
0.776                  0.9987343        41.98304
0.78                   0.9978165        41.39898
0.784                  0.9972391        40.83462
0.788                  0.9971087        40.28028
0.792                  0.9974532        39.72444
0.796                  0.9982146        39.15597
0.8                    0.9992603        38.56604
0.804                   1.000405        37.94981
0.808                   1.001445        37.30724
0.812                   1.002192        36.64313
0.816                    1.00251        35.96622
0.82                    1.002336        35.28774
0.824                   1.001694        34.61947
0.828                   1.000692        33.97163
0.832                  0.9995013        33.35118
0.836                  0.9983327        32.76039
0.84                   0.9973941         32.1964
0.844                  0.9968563        31.65154
0.848                  0.9968202        31.11466
0.852                  0.9972974        30.57311
0.856                  0.9982077          30.015
0.86                    0.999392        29.43144
0.864                    1.00064        28.81812
0.868                    1.00173        28.17609
0.872                   1.002462        27.51156
0.876                   1.002703        26.83482
0.88                    1.002401        26.15849
0.884                   1.001602        25.49532
0.888                    1.00044          24.856
0.892                  0.9991162        24.24726
0.896                  0.9978637        23.67053
0.9                    0.9969074        23.12153
0.904                  0.9964229        22.59093
0.908                  0.9965029        22.06588
0.912                  0.9971403        21.53234
0.916                   0.998227        20.97768
0.92                   0.9995729        20.39294
0.924                   1.000939        19.77451
0.928                   1.002081        19.12477
0.932                   1.002791        18.45162
0.936                   1.002936        17.76715
0.94                    1.002479        17.08558
0.944                   1.001493        16.42081
0.948                   1.000143        15.78401
0.952                  0.9986638        15.18159
0.956                  0.9973165        14.61391
0.96                   0.9963446        14.07504
0.964                  0.9959281        13.55359
0.968                  0.9961497        13.03475
0.972                  0.9969787         12.5029
0.976                  0.9982735        11.94452
0.98                   0.9998075        11.35068
0.984                   1.001308        10.71865
0.988                   1.002506         10.0524
0.992                   1.003181        9.361868
0.996                   1.003204        8.661276
1                       1.002558        7.966713
1.004                   1.001346        7.293396
1.008                  0.9997709        6.653018
1.012                  0.9981074        6.051589
1.016                  0.9966501        5.488157
1.02                   0.9956632        4.954738
1.024                  0.9953319        4.437541
1.028                  0.9957259        3.919363
1.032                   0.996785        3.382731
1.036                  0.9983279        2.813134
1.04                    1.000084        2.201707
1.044                    1.00174         1.54683
1.048                   1.002998       0.8544037
1.052                   1.003624       0.1368138
1.056                   1.003494      -0.5891772
1.06                    1.002616       -1.305244
1.064                   1.001128       -1.994602
1.068                  0.9992807       -2.644948
1.072                  0.9973953       -3.250782
1.076                   0.995807       -3.814664
1.08                   0.9948056       -4.347072
1.084                  0.9945813       -4.864762
1.088                  0.9951879       -5.387819
1.092                   0.996529       -5.935971
1.096                  0.9983747       -6.524897
1.1                     1.000401       -7.163383
1.104                   1.002245       -7.851675
1.108                   1.003574       -8.581494
1.112                   1.004138       -9.337459
1.116                   1.003819       -10.09976
1.12                    1.002652       -10.84729
1.124                   1.000823       -11.56131
1.128                  0.9986388        -12.2288
1.132                  0.9964795        -12.8448
1.136                  0.9947295       -13.41387
1.14                   0.9937112       -13.94959
1.144                  0.9936217        -14.4724
1.148                  0.9944948       -15.00601
1.152                  0.9961905       -15.57298
1.156                  0.9984175       -16.19051
1.16                    1.000784       -16.86724
1.164                   1.002868       -17.60174
1.168                   1.004288       -18.38281
1.172                   1.004776        -19.1914
1.176                   1.004219       -20.00373
1.18                    1.002688       -20.79526
1.184                   1.000424       -21.54472
1.188                  0.9978071       -22.23794
1.192                  0.9952918       -22.87066
1.196                   0.993328       -23.44984
1.2                    0.9922806       -23.99299
1.204                  0.9923585       -24.52533
1.208                  0.9935714        -25.0753
1.212                  0.9957239       -25.66921
1.216                  0.9984463       -26.32633
1.22                     1.00126       -27.05525
1.224                   1.003662       -27.85251
1.228                    1.00521       -28.70318
1.232                   1.005606       -29.58346
1.236                   1.004742       -30.46451
1.24                    1.002729       -31.31708
1.244                  0.9998825       -32.11638
1.248                  0.9966768       -32.84652
1.252                  0.9936668       -33.50378
1.256                  0.9913928       -34.09815
1.26                    0.990281       -34.65228
1.264                  0.9905612       -35.19786
1.268                  0.9922163       -35.76987
1.272                  0.9949787       -36.39997
1.276                  0.9983746        -37.1105
1.28                    1.001807       -37.91031
1.284                   1.004658       -38.79341
1.288                   1.006401       -39.74008
1.292                   1.006684       -40.72013
1.296                   1.005403       -41.69773
1.3                     1.002717       -42.63692
1.304                  0.9990392        -43.5076
1.308                  0.9949725       -44.29083
1.312                  0.9912161       -44.98311
1.316                  0.9884447       -45.59816
1.32                   0.9871832       -46.16574
1.324                  0.9877021       -46.72686
1.328                  0.9899557       -47.32634
1.332                  0.9935805       -48.00412
1.336                  0.9979555       -48.78763
1.34                    1.002309       -49.68682
1.344                   1.005853       -50.69263
1.348                   1.007918       -51.77883
1.352                    1.00807       -52.90615
1.356                   1.006184       -54.02841
1.36                    1.002481       -55.09932
1.364                  0.9975031       -56.07985
1.368                  0.9920472       -56.94523
1.372                  0.9870367       -57.69085
1.376                  0.9833681       -58.33506
1.38                   0.9817418       -58.91809
1.384                  0.9825182        -59.4959
1.388                  0.9856305       -60.12972
1.392                  0.9905805       -60.87412
1.396                  0.9965191       -61.76631
1.4                     1.002392       -62.81955
1.404                   1.007122       -64.02137
1.408                   1.009787       -65.33621
1.412                   1.009776       -66.71107
1.416                   1.006897       -68.08295
1.42                    1.001426       -69.38766
1.424                  0.9940963       -70.56924
1.428                  0.9860118       -71.58995
1.432                   0.978493       -72.43947
1.436                  0.9728599       -73.14112
1.44                   0.9701836       -73.75228
1.444                   0.971057        -74.3566
1.448                  0.9754416       -75.04865
1.452                  0.9826392       -75.91469
1.456                  0.9913991       -77.01547
1.46                    1.000129       -78.37583
1.464                   1.007159        -79.9821
1.468                   1.011011       -81.78614
1.472                   1.010622       -83.71299
1.476                   1.005524       -85.67032
1.48                   0.9959442       -87.55866
1.484                  0.9828418       -89.28367
1.488                  0.9678477       -90.77096
1.492                  0.9530939       -91.98413
1.496                  0.9409122       -92.94312
1.5                    0.9334113       -93.73646
1.504                  0.9320012       -94.51805
1.508                  0.9369869       -95.48328
1.512                  0.9473761       -96.82969
1.516                  0.9609679        -98.7179
1.52                   0.9746768        -101.248
1.524                  0.9849661       -104.4566
1.528                  0.9882663       -108.3287
1.532                  0.9813084       -112.8143
1.536                  0.9613566       -117.8443
1.54                   0.9263512       -123.3409
1.544                  0.8749865       -129.2234
1.548                  0.8067404       -135.4094
1.552                  0.7218669       -141.8107
1.556                   0.621362       -148.3213
1.56                   0.5069104       -154.7855
1.564                  0.3808288       -160.8956
1.568                  0.2460838        -165.742
1.572                  0.1072529       -163.8267
1.576                 0.05100868       -44.17947
1.58                   0.1865052       -24.52556
1.584                  0.3241271       -27.95791
1.588                  0.4548166       -33.75678
1.592                  0.5751648       -40.18305
1.596                  0.6825311       -46.77392
1.6                    0.7748855       -53.32882
1.604                  0.8508547       -59.72605
1.608                  0.9097848       -65.87116
1.612                  0.9517915       -71.67864
1.616                  0.9777871       -77.06483
1.62                   0.9894765       -81.94671
1.624                  0.9893137       -86.24522
1.628                  0.9804003        -89.8937
1.632                  0.9663046       -92.85217
1.636                  0.9507752       -95.12567
1.64                   0.9373435       -96.78241
1.644                  0.9288515       -97.96107
1.648                  0.9270145       -98.85771
1.652                  0.9321692       -99.69012
1.656                  0.9433205       -100.6515
1.66                   0.9584781       -101.8734
1.664                   0.975155       -103.4118
1.668                  0.9908644       -105.2532
1.672                   1.003513       -107.3335
1.676                   1.011648       -109.5581
1.68                    1.014583       -111.8195
1.684                   1.012411       -114.0105
1.688                   1.005942       -116.0359
1.692                  0.9965681       -117.8227
1.696                  0.9860579         -119.33
1.7                    0.9762944       -120.5571
1.704                  0.9689765       -121.5469
1.708                  0.9653314        -122.381
1.712                  0.9659012        -123.165
1.716                  0.9704662       -124.0067
1.72                   0.9781234       -124.9948
1.724                   0.987498        -126.183
1.728                  0.9970198       -127.5844
1.732                     1.0052       -129.1754
1.736                   1.010856        -130.904
1.74                    1.013265       -132.7011
1.744                   1.012236       -134.4907
1.748                    1.00811       -136.2004
1.752                   1.001695       -137.7706
1.756                  0.9941402       -139.1625
1.76                   0.9867522       -140.3647
1.764                  0.9807893       -141.3969
1.768                  0.9772465       -142.3074
1.772                  0.9766816       -143.1653
1.776                  0.9791226       -144.0468
1.78                   0.9840782       -145.0206
1.784                  0.9906487       -146.1347
1.788                  0.9977052       -147.4098
1.792                   1.004093        -148.838
1.796                   1.008821       -150.3874
1.8                     1.011203       -152.0087
1.804                   1.010947       -153.6439
1.808                   1.008185       -155.2345
1.812                   1.003441       -156.7293
1.816                  0.9975432        -158.092
1.82                      0.9915       -159.3069
1.824                  0.9863323       -160.3824
1.828                  0.9829041       -161.3503
1.832                  0.9817715       -162.2612
1.836                  0.9830869       -163.1745
1.84                   0.9865785       -164.1477
1.844                  0.9916118        -165.225
1.848                  0.9973139       -166.4304
1.852                   1.002733       -167.7649
1.856                   1.006998       -169.2082
1.86                    1.009452       -170.7235
1.864                    1.00975       -172.2639
1.868                   1.007892       -173.7795
1.872                   1.004228       -175.2249
1.876                  0.9993884        -176.565
1.88                   0.9941936       -177.7815
1.884                   0.989517       -178.8756
1.888                  0.9861413        -179.869
1.892                   0.984623        179.1995
1.896                  0.9851948        178.2806
1.9                    0.9877273        177.3243
1.904                  0.9917597        176.2886
1.908                  0.9965887        175.1476
1.912                   1.001399        173.8943
1.916                     1.0054        172.5409
1.92                    1.007956        171.1159
1.924                   1.008678        169.6583
1.928                   1.007481        168.2119
1.932                   1.004585        166.8185
1.936                   1.000486        165.5122
1.94                   0.9958725        164.3137
1.944                   0.991518        163.2267
1.948                  0.9881509        162.2368
1.952                  0.9863312        161.3132
1.956                  0.9863516        160.4139
1.96                   0.9881863        159.4938
1.964                  0.9915002        158.5127
1.968                  0.9957133        157.4427
1.972                   1.000108        156.2726
1.976                   1.003952        155.0086
1.98                    1.006621        153.6726
1.984                   1.007692        152.2979
1.988                   1.007007        150.9238
1.992                   1.004695        149.5897
1.996                   1.001144        148.3291
2                      0.9969481        147.1648
2.004                  0.9928059        146.1044
2.008                  0.9894099        145.1392
2.012                  0.9873276        144.2442
2.016                   0.986901         143.383
2.02                   0.9881876         142.514
2.024                  0.9909507         141.598
2.028                  0.9947054        140.6055
2.032                  0.9988081        139.5216
2.036                   1.002569        138.3476
2.04                    1.005366        137.1003
2.044                   1.006745        135.8083
2.048                   1.006487        134.5077
2.052                   1.004639        133.2359
2.056                   1.001508        132.0268
2.06                   0.9976089        130.9047
2.064                  0.9935872        129.8812
2.068                   0.990112        128.9519
2.072                  0.9877636         128.097
2.076                   0.986932        127.2842
2.08                   0.9877481        126.4744
2.084                  0.9900593         125.629
2.088                  0.9934601        124.7166
2.092                  0.9973647        123.7187
2.096                   1.001111        122.6322
2.1                     1.004073        121.4694
2.104                   1.005758        120.2552
2.108                   1.005888        119.0229
2.112                   1.004436         117.809
2.116                   1.001632        116.6478
2.12                   0.9979275        115.5662
2.124                  0.9939271        114.5793
2.128                  0.9902887        113.6871
2.132                  0.9876165        112.8743
2.136                  0.9863556        112.1122
2.14                   0.9867121        111.3636
2.144                  0.9886157        110.5894
2.148                  0.9917326        109.7556
2.152                  0.9955254          108.84
2.156                  0.9993475        107.8346
2.16                    1.002553        106.7473
2.164                   1.004601        105.5994
2.168                    1.00514        104.4221
2.172                   1.004063        103.2518
2.176                   1.001523        102.1241
2.18                   0.9979109        101.0693
2.184                  0.9937985        100.1068
2.188                  0.9898487        99.24172
2.192                   0.986708        98.46363
2.196                  0.9848966        97.74716
2.2                    0.9847151        97.05618
2.204                  0.9861891        96.35005
2.208                  0.9890621        95.59106
2.212                  0.9928404        94.75113
2.216                  0.9968783        93.81651
2.22                    1.000488         92.7895
2.224                   1.003049        91.68765
2.228                   1.004111        90.54042
2.232                   1.003456         89.3847
2.236                    1.00114        88.25934
2.24                   0.9974844        87.19953
2.244                  0.9930345        86.23133
2.248                  0.9884777        85.36713
2.252                  0.9845385        84.60269
2.256                  0.9818576        83.91671
2.26                   0.9808797        83.27361
2.264                  0.9817697        82.62926
2.268                  0.9843777        81.93892
2.272                  0.9882599        81.16522
2.276                  0.9927525        80.28468
2.28                    0.997081        79.29132
2.284                   1.000486        78.19707
2.288                   1.002341        77.02946
2.292                   1.002249        75.82729
2.296                   1.000109        74.63523
2.3                    0.9961328        73.49763
2.304                   0.990832        72.45212
2.308                  0.9849495        71.52352
2.312                  0.9793579         70.7186
2.316                  0.9749233        70.02294
2.32                   0.9723588        69.40137
2.324                  0.9720909        68.80236
2.328                  0.9741683        68.16655
2.332                  0.9782356        67.43734
2.336                  0.9835817        66.57088
2.34                   0.9892482        65.54365
2.344                   0.994177        64.35559
2.348                  0.9973728        63.02946
2.352                  0.9980493        61.60721