! TOUCHSTONE file generated by CST MICROWAVE STUDIO
! Date and time: Tue Jun  7 21:31:20 2022
! Project name: AppElm_antenne_patch_FR4.cst
! Parameters = {L=45; W=58.5; e=0.035; h=1.6; lambda=0.190476; ls=120; w0=1.76; w1=0.533; ws=120; y0=20; y1=23.81}
! Header version: 2018
! Port assignment regex: !\s*Touchstone port\s*([0-9]+)\s*=\s*(CST MWS port|CST DS port)\s*([0-9]+|Zmin|Zmax)\s*\(\"(.*)\"\)(\s*mode\s*([0-9]+))?.*
! Touchstone port assignment:
! Touchstone port 1 = CST MWS port 1 ("")
# GHz S MA R 50
0                      0.9890139              -0
0.004                  0.9896746        -9.94878
0.008                   0.991565       -19.80844
0.012                  0.9944241        -29.4943
0.016                  0.9978617       -38.92977
0.02                    1.001417        -48.0489
0.024                   1.004626       -56.79752
0.028                   1.007084       -65.13336
0.032                   1.008499       -73.02552
0.036                   1.008727       -80.45374
0.04                    1.007788       -87.40784
0.044                   1.005858       -93.88742
0.048                   1.003243       -99.90189
0.052                   1.000334       -105.4705
0.056                  0.9975485       -110.6219
0.06                    0.995275       -115.3931
0.064                  0.9938125       -119.8279
0.068                  0.9933302       -123.9732
0.072                  0.9938451       -127.8761
0.076                  0.9952257       -131.5796
0.08                   0.9972175       -135.1199
0.084                  0.9994882       -138.5241
0.088                   1.001681       -141.8092
0.092                   1.003471       -144.9832
0.096                   1.004609        -148.046
0.1                     1.004959       -150.9929
0.104                   1.004508       -153.8163
0.108                   1.003367       -156.5093
0.112                   1.001748       -159.0677
0.116                  0.9999287       -161.4925
0.12                   0.9982057       -163.7904
0.124                  0.9968507       -165.9739
0.128                   0.996066       -168.0606
0.132                  0.9959544        -170.071
0.136                  0.9965068       -172.0258
0.14                   0.9976062       -173.9436
0.144                  0.9990523       -175.8384
0.148                   1.000597       -177.7182
0.152                   1.001985       -179.5849
0.156                   1.002999        178.5656
0.16                    1.003487        176.7417
0.164                    1.00339        174.9541
0.168                   1.002743        173.2137
0.172                   1.001672        171.5299
0.176                   1.000366        169.9082
0.18                   0.9990479        168.3491
0.184                  0.9979371        166.8485
0.188                  0.9972124        165.3972
0.192                  0.9969837         163.983
0.196                  0.9972749        162.5922
0.2                    0.9980222        161.2118
0.204                  0.9990869        159.8317
0.208                   1.000281        158.4458
0.212                   1.001401        157.0528
0.216                    1.00226        155.6564
0.22                    1.002721         154.264
0.224                   1.002716        152.8851
0.228                   1.002254        151.5301
0.232                   1.001425        150.2081
0.236                   1.000374        148.9252
0.24                   0.9992834         147.684
0.244                  0.9983381        146.4823
0.248                  0.9976961         145.314
0.252                  0.9974602        144.1698
0.256                  0.9976632         143.039
0.26                   0.9982613        141.9108
0.264                  0.9991451        140.7768
0.268                   1.000158        139.6317
0.272                   1.001124        138.4745
0.276                    1.00188        137.3081
0.28                      1.0023        136.1391
0.284                   1.002316        134.9759
0.288                   1.001933        133.8282
0.292                    1.00122        132.7044
0.296                   1.000303        131.6105
0.3                    0.9993428        130.5492
0.304                  0.9985031        129.5191
0.308                  0.9979277        128.5155
0.312                  0.9977124        127.5302
0.316                  0.9978899        126.5538
0.32                   0.9984252         125.577
0.324                  0.9992209         124.592
0.328                   1.000137        123.5942
0.332                   1.001014        122.5826
0.336                     1.0017          121.56
0.34                     1.00208        120.5323
0.344                   1.002091        119.5076
0.348                   1.001734        118.4948
0.352                   1.001074        117.5017
0.356                   1.000227        116.5342
0.36                   0.9993407        115.5949
0.364                  0.9985703        114.6827
0.368                  0.9980488        113.7929
0.372                  0.9978655        112.9182
0.376                  0.9980506        112.0498
0.38                   0.9985697        111.1789
0.384                  0.9993302        110.2985
0.388                   1.000198        109.4042
0.392                   1.001022        108.4952
0.396                   1.001659        107.5744
0.4                        1.002        106.6476
0.404                   1.001985        105.7226
0.408                   1.001621         104.808
0.412                   1.000971        103.9114
0.416                   1.000149        103.0383
0.42                   0.9992986        102.1911
0.424                  0.9985697        101.3685
0.428                  0.9980892        100.5659
0.432                  0.9979409        99.77615
0.436                    0.99815        98.99063
0.44                   0.9986792        98.20092
0.444                  0.9994346        97.40026
0.448                   1.000283        96.58465
0.452                   1.001076        95.75369
0.456                   1.001674        94.91038
0.46                    1.001973        94.06074
0.464                   1.001921        93.21264
0.468                   1.001527        92.37447
0.472                    1.00086        91.55367
0.476                   1.000037        90.75549
0.48                   0.9992015        89.98196
0.484                  0.9985015        89.23155
0.488                  0.9980601         88.4994
0.492                  0.9979556        87.77812
0.496                  0.9982066        87.05908
0.5                     0.998769        86.33397
0.504                  0.9995435        85.59631
0.508                   1.000393        84.84249
0.512                   1.001168        84.07249
0.516                   1.001732        83.28979
0.52                    1.001984        82.50072
0.524                    1.00188        81.71341
0.528                   1.001435        80.93634
0.532                   1.000727        80.17685
0.536                  0.9998799        79.43989
0.54                   0.9990413        78.72712
0.544                  0.9983595        78.03651
0.548                  0.9979555        77.36269
0.552                  0.9979013        76.69792
0.556                  0.9982076        76.03332
0.56                   0.9988206        75.36061
0.564                  0.9996322        74.67346
0.568                   1.000498        73.96873
0.572                   1.001266         73.2469
0.576                   1.001798        72.51207
0.58                    1.001999        71.77109
0.584                   1.001832         71.0325
0.588                   1.001324        70.30496
0.592                   1.000562        69.59576
0.596                  0.9996809        68.90954
0.6                    0.9988347        68.24742
0.604                  0.9981742        67.60675
0.608                  0.9978182        66.98147
0.612                  0.9978318        66.36325
0.616                  0.9982145        65.74287
0.62                   0.9988999        65.11195
0.624                  0.9997677        64.46441
0.628                   1.000664        63.79758
0.632                    1.00143        63.11268
0.636                   1.001927        62.41454
0.64                    1.002068        61.71075
0.644                   1.001822         61.0104
0.648                   1.001232        60.32243
0.652                   1.000398        59.65409
0.656                  0.9994672        59.00967
0.66                   0.9986034        58.38966
0.664                  0.9979613        57.79054
0.668                   0.997657        57.20544
0.672                  0.9977472        56.62527
0.676                  0.9982184        56.04034
0.68                   0.9989885        55.44217
0.684                  0.9999218        54.82492
0.688                   1.000853        54.18655
0.692                   1.001614         53.5291
0.696                    1.00207        52.85836
0.7                     1.002135         52.1828
0.704                   1.001795        51.51216
0.708                   1.001106        50.85571
0.712                   1.000186        50.22063
0.716                  0.9991987        49.61076
0.72                    0.998318        49.02574
0.724                  0.9977027         48.4611
0.728                  0.9974658        47.90889
0.732                   0.997653        47.35912
0.736                  0.9982345        46.80157
0.74                   0.9991093        46.22759
0.744                   1.000123        45.63175
0.748                   1.001094        45.01274
0.752                    1.00185        44.37367
0.756                   1.002252        43.72144
0.76                    1.002225        43.06558
0.764                   1.001769        42.41659
0.768                   1.000959        41.78414
0.772                  0.9999355        41.17532
0.776                  0.9988779        40.59335
0.78                   0.9979747        40.03693
0.784                  0.9973889        39.50033
0.788                  0.9972286        38.97438
0.792                  0.9975262        38.44807
0.796                  0.9982324        37.91052
0.8                    0.9992233        37.35304
0.804                   1.000323        36.77062
0.808                   1.001334         36.1629
0.812                   1.002075        35.53422
0.816                   1.002408        34.89282
0.82                    1.002269        34.24943
0.824                   1.001675        33.61543
0.828                   1.000726        33.00086
0.832                   0.999587         32.4126
0.836                  0.9984578        31.85313
0.84                   0.9975411        31.31991
0.844                   0.997004        30.80576
0.848                  0.9969475        30.30004
0.852                  0.9973872        29.79055
0.856                  0.9982494        29.26573
0.86                   0.9993834        28.71684
0.864                   1.000587        28.13952
0.868                   1.001647        27.53455
0.872                   1.002368        26.90777
0.876                   1.002619        26.26899
0.88                    1.002346        25.63034
0.884                   1.001591        25.00418
0.888                   1.000481        24.40093
0.892                  0.9992087        23.82721
0.896                  0.9979991        23.28454
0.9                    0.9970698        22.76892
0.904                  0.9965918        22.27144
0.908                  0.9966568        21.77975
0.912                  0.9972595        21.28032
0.916                  0.9982973        20.76089
0.92                   0.9995878        20.21277
0.924                   1.000901        19.63238
0.928                   1.002001        19.02193
0.932                   1.002685        18.38903
0.936                   1.002826        17.74532
0.94                    1.002387        17.10452
0.944                   1.001439        16.48007
0.948                    1.00014        15.88274
0.952                  0.9987176         15.3187
0.956                  0.9974243        14.78829
0.96                   0.9964947        14.28571
0.964                   0.996102        13.79995
0.968                  0.9963253        13.31665
0.972                  0.9971329        12.82076
0.976                  0.9983874        12.29925
0.98                   0.9998685        11.74358
0.984                   1.001313        11.15121
0.988                   1.002459        10.52608
0.992                   1.003098        9.877919
0.996                   1.003106        9.220536
1                       1.002469        8.569502
1.004                   1.001291        7.939464
1.008                  0.9997699        7.341589
1.012                  0.9981721        6.781476
1.016                  0.9967823        6.257966
1.02                   0.9958543        5.763105
1.024                  0.9955626        5.283402
1.028                    0.99597        4.802173
1.032                  0.9970128        4.302605
1.036                  0.9985115        3.770875
1.04                    1.000201        3.198717
1.044                   1.001779         2.58492
1.048                   1.002959        1.935542
1.052                    1.00352        1.262842
1.056                   1.003348       0.5831972
1.06                    1.002459     -0.08567007
1.064                   1.000994      -0.7277134
1.068                  0.9992021       -1.331402
1.072                  0.9973957       -1.891921
1.076                  0.9958984       -2.412305
1.08                    0.994985       -2.903198
1.084                  0.9948311       -3.381152
1.088                  0.9954777       -3.865699
1.092                  0.9968212       -4.375749
1.096                  0.9986301       -4.926059
1.1                     1.000585       -5.524466
1.104                   1.002336       -6.170547
1.108                   1.003564       -6.855615
1.112                   1.004037       -7.564369
1.116                   1.003654       -8.277278
1.12                    1.002462       -8.974011
1.124                   1.000654       -9.636813
1.128                  0.9985375        -10.2537
1.132                  0.9964821       -10.82084
1.136                   0.994858       -11.34358
1.14                   0.9939665       -11.83585
1.144                   0.993983       -12.31799
1.148                  0.9949219         -12.813
1.152                  0.9966292       -13.34234
1.156                  0.9988093       -13.92183
1.16                    1.001076       -14.55877
1.164                    1.00302        -15.2506
1.168                   1.004284       -15.98542
1.172                   1.004623         -16.744
1.176                   1.003951       -17.50299
1.18                    1.002358       -18.23875
1.184                     1.0001       -18.93138
1.188                  0.9975588       -19.56831
1.192                   0.995179       -20.14691
1.196                  0.9933907       -20.67545
1.2                    0.9925298       -21.17221
1.204                  0.9927727        -21.6624
1.208                  0.9940997       -22.17363
1.212                  0.9962929        -22.7307
1.216                  0.9989732       -23.35092
1.22                    1.001667       -24.04093
1.224                   1.003888       -24.79555
1.228                   1.005227       -25.59874
1.232                   1.005418       -26.42632
1.236                   1.004393       -27.24988
1.24                    1.002293       -28.04141
1.244                  0.9994548       -28.77804
1.248                  0.9963589       -29.44618
1.252                   0.993548       -30.04456
1.256                  0.9915338       -30.58521
1.26                   0.9907006       -31.09205
1.264                  0.9912302       -31.59683
1.268                  0.9930592       -32.13341
1.272                  0.9958858        -32.7312
1.276                  0.9992201       -33.40962
1.28                    1.002469       -34.17458
1.284                   1.005043       -35.01747
1.288                   1.006455        -35.9168
1.292                    1.00641       -36.84165
1.296                   1.004856       -37.75666
1.3                     1.002004       -38.62754
1.304                  0.9983002       -39.42686
1.308                  0.9943621       -40.13915
1.312                  0.9908755        -40.7646
1.316                  0.9884754       -41.32024
1.32                   0.9876258       -41.83795
1.324                  0.9885248       -42.35922
1.328                  0.9910564       -42.92728
1.332                  0.9948029       -43.57887
1.336                  0.9991147       -44.33714
1.34                    1.003224       -45.20758
1.344                    1.00638       -46.17718
1.348                   1.007975       -47.21692
1.352                    1.00765       -48.28635
1.356                   1.005368        -49.3397
1.36                    1.001424       -50.33297
1.364                  0.9964191         -51.231
1.368                  0.9911731       -52.01433
1.372                   0.986595       -52.68411
1.376                  0.9835233        -53.2642
1.38                   0.9825647       -53.79857
1.384                  0.9839639       -54.34414
1.388                  0.9875398       -54.95994
1.392                  0.9927028       -55.69542
1.396                  0.9985535       -56.58097
1.4                     1.004038        -57.6226
1.404                   1.008129        -58.8015
1.408                   1.009997       -60.07744
1.412                   1.009154       -61.39494
1.416                   1.005542       -62.69108
1.42                   0.9995661       -63.90435
1.424                  0.9920636       -64.98431
1.428                  0.9841977       -65.90124
1.432                  0.9772849       -66.65459
1.436                  0.9725689       -67.27762
1.44                   0.9709762       -67.83548
1.444                  0.9729083       -68.41498
1.448                  0.9781258       -69.10803
1.452                  0.9857613       -69.99284
1.456                  0.9944606       -71.11866
1.46                    1.002612       -72.49796
1.464                   1.008614       -74.10603
1.468                   1.011127       -75.88628
1.472                   1.009285       -77.75849
1.476                    1.00285       -79.62844
1.48                   0.9922904       -81.39893
1.484                  0.9787865       -82.98268
1.488                  0.9641347       -84.31823
1.492                  0.9505324       -85.38825
1.496                  0.9402352       -86.23609
1.5                    0.9351111       -86.97307
1.504                   0.936182       -87.76799
1.508                  0.9432874       -88.81725
1.512                   0.954991       -90.30467
1.516                  0.9687601       -92.36753
1.52                   0.9813349       -95.08072
1.524                  0.9891611       -98.45973
1.528                  0.9887766       -102.4744
1.532                   0.977108       -107.0654
1.536                  0.9516687       -112.1574
1.54                   0.9106779       -117.6675
1.544                  0.8531217       -123.5076
1.548                  0.7787712       -129.5826
1.552                  0.6881679        -135.779
1.556                  0.5825894        -141.939
1.56                   0.4640121       -147.7847
1.564                  0.3351332       -152.6588
1.568                  0.1998486        -154.188
1.572                 0.07093273       -132.0422
1.576                  0.1046977       -31.08492
1.58                   0.2391949       -22.37278
1.584                  0.3734174       -25.41909
1.588                  0.4999701       -30.73995
1.592                  0.6153961       -36.78616
1.596                  0.7171685       -43.06214
1.6                    0.8034535       -49.33756
1.604                  0.8731225       -55.47106
1.608                  0.9257966        -61.3551
1.612                  0.9618825       -66.89521
1.616                  0.9825853       -72.00195
1.62                   0.9898882        -76.5898
1.624                  0.9864879       -80.58142
1.628                  0.9756634       -83.91769
1.632                  0.9610569       -86.57329
1.636                  0.9463457       -88.57508
1.64                   0.9348137       -90.01667
1.644                  0.9288846       -91.05864
1.648                  0.9297472       -91.90635
1.652                  0.9372149       -92.76911
1.656                  0.9498898        -93.8164
1.66                   0.9655729       -95.14941
1.664                  0.9817694       -96.79548
1.668                  0.9961477        -98.7202
1.672                   1.006873       -100.8468
1.676                   1.012803       -103.0754
1.68                     1.01357       -105.2987
1.684                   1.009559       -107.4144
1.688                   1.001819       -109.3361
1.692                  0.9919025       -111.0036
1.696                  0.9816319        -112.392
1.7                    0.9728266       -113.5181
1.704                  0.9670019       -114.4413
1.708                  0.9651099       -115.2537
1.712                  0.9673773       -116.0633
1.716                  0.9732929       -116.9711
1.72                   0.9817446       -118.0516
1.724                   0.991262       -119.3414
1.728                   1.000297       -120.8381
1.732                   1.007481       -122.5055
1.736                   1.011818       -124.2841
1.74                    1.012805       -126.1013
1.744                   1.010473       -127.8825
1.748                   1.005362       -129.5603
1.752                  0.9984253       -131.0831
1.756                  0.9908872       -132.4233
1.76                   0.9840451       -133.5821
1.764                  0.9790581       -134.5913
1.768                  0.9767481       -135.5085
1.772                  0.9774553       -136.4063
1.776                   0.980989       -137.3589
1.78                   0.9866795       -138.4269
1.784                  0.9935208        -139.647
1.788                   1.000362       -141.0279
1.792                   1.006107       -142.5514
1.796                   1.009885       -144.1779
1.8                     1.011169        -145.854
1.804                   1.009842       -147.5209
1.808                     1.0062       -149.1228
1.812                   1.000899       -150.6141
1.816                  0.9948507       -151.9664
1.82                   0.9890801       -153.1738
1.824                  0.9845572       -154.2541
1.828                  0.9820313       -155.2475
1.832                  0.9819004       -156.2088
1.836                   0.984144       -157.1977
1.84                   0.9883368       -158.2672
1.844                  0.9937357       -159.4536
1.848                  0.9994225       -160.7718
1.852                   1.004464        -162.214
1.856                   1.008066       -163.7526
1.86                    1.009688       -165.3463
1.864                   1.009118       -166.9464
1.868                   1.006498        -168.504
1.872                   1.002293        -169.977
1.876                  0.9972192       -171.3366
1.88                   0.9921322       -172.5715
1.884                   0.987885       -173.6911
1.888                  0.9851858       -174.7241
1.892                  0.9844747       -175.7142
1.896                  0.9858464       -176.7119
1.9                    0.9890383       -177.7652
1.904                  0.9934842       -178.9106
1.908                   0.998422        179.8329
1.912                   1.003029         178.466
1.916                   1.006559        177.0075
1.92                    1.008459        175.4905
1.924                   1.008447        173.9569
1.928                   1.006554        172.4504
1.932                   1.003111        171.0112
1.936                  0.9986967        169.6688
1.94                   0.9940494        168.4385
1.944                  0.9899455        167.3171
1.948                  0.9870705        166.2839
1.952                  0.9859004         165.303
1.956                  0.9866169        164.3301
1.96                   0.9890776        163.3203
1.964                  0.9928453         162.237
1.968                  0.9972706        161.0577
1.972                   1.001608        159.7774
1.976                   1.005144        158.4086
1.98                    1.007308        156.9781
1.984                   1.007763        155.5225
1.988                   1.006449        154.0822
1.992                   1.003595        152.6958
1.996                  0.9996769        151.3941
2                      0.9953463        150.1953
2.004                  0.9913262        149.1016
2.008                  0.9882897        148.0979
2.012                  0.9867454        147.1543
2.016                  0.9869461        146.2311
2.02                    0.988844        145.2855
2.024                  0.9921019        144.2804
2.028                   0.996156        143.1904
2.032                   1.000318         142.006
2.036                   1.003892        140.7343
2.04                    1.006291        139.3972
2.044                   1.007126        138.0273
2.048                   1.006266        136.6628
2.052                   1.003852        135.3415
2.056                   1.000283        134.0954
2.06                   0.9961451        132.9456
2.064                  0.9921256        131.8985
2.068                  0.9888967         130.944
2.072                  0.9870006        130.0566
2.076                  0.9867546        129.1998
2.08                    0.988192        128.3324
2.084                  0.9910571        127.4161
2.088                  0.9948527        126.4225
2.092                  0.9989305         125.338
2.096                   1.002602        124.1652
2.1                     1.005254         122.922
2.104                   1.006446        121.6378
2.108                   1.005978        120.3492
2.112                   1.003919        119.0942
2.116                   1.000598        117.9063
2.12                   0.9965549        116.8098
2.124                  0.9924543        115.8149
2.128                  0.9889789        114.9159
2.132                   0.986714        114.0913
2.136                  0.9860422        113.3068
2.14                   0.9870744        112.5216
2.144                  0.9896282        111.6957
2.148                  0.9932605        110.7975
2.152                  0.9973477        109.8089
2.156                   1.001194        108.7281
2.16                    1.004147        107.5694
2.164                   1.005705        106.3599
2.168                   1.005594        105.1353
2.172                   1.003809        103.9347
2.176                   1.000617        102.7941
2.18                   0.9965225        101.7416
2.184                  0.9921833         100.792
2.188                  0.9883134        99.94425
2.192                  0.9855593        99.18018
2.196                  0.9843881        98.46724
2.2                    0.9850003        97.76385
2.204                  0.9872906        97.02696
2.208                  0.9908652        96.21994
2.212                  0.9951102        95.31912
2.216                  0.9992992        94.31757
2.22                    1.002714        93.22551
2.224                   1.004763         92.0681
2.228                   1.005073        90.88133
2.232                   1.003545        89.70638
2.236                   1.000379        88.58377
2.24                   0.9960438        87.54722
2.244                  0.9912115        86.61812
2.248                  0.9866565        85.80126
2.252                  0.9831287        85.08277
2.256                  0.9812236        84.43139
2.26                   0.9812721         83.8031
2.264                  0.9832738        83.14898
2.268                  0.9868911        82.42416
2.272                   0.991505        81.59602
2.276                  0.9963197         80.6496
2.28                    1.000496        79.58961
2.284                   1.003285        78.43894
2.288                   1.004149        77.23487
2.292                   1.002841        76.02343
2.296                  0.9994547        74.85309
2.3                    0.9944155        73.76786
2.304                  0.9884341        72.80043
2.308                  0.9824078        71.96605
2.312                   0.977284        71.25805
2.316                  0.9739025        70.64674
2.32                    0.972841        70.08264
2.324                   0.974297        69.50431
2.328                  0.9780348         68.8495
2.332                   0.983412        68.06656
2.336                   0.989481        67.12361
2.34                   0.9951396        66.01342
2.344                  0.9993047         64.7536
2.348                   1.001076        63.38343
2.352                  0.9998723        61.95818