! TOUCHSTONE file generated by CST MICROWAVE STUDIO
! Date and time: Tue Jun  7 21:31:19 2022
! Project name: AppElm_antenne_patch_FR4.cst
! Parameters = {L=45; W=58.5; e=0.035; h=1.6; lambda=0.190476; ls=120; w0=1.68; w1=0.533; ws=120; y0=20; y1=23.81}
! Header version: 2018
! Port assignment regex: !\s*Touchstone port\s*([0-9]+)\s*=\s*(CST MWS port|CST DS port)\s*([0-9]+|Zmin|Zmax)\s*\(\"(.*)\"\)(\s*mode\s*([0-9]+))?.*
! Touchstone port assignment:
! Touchstone port 1 = CST MWS port 1 ("")
# GHz S MA R 50
0                      0.9891922              -0
0.004                  0.9898394       -9.934064
0.008                  0.9916913       -19.78037
0.012                  0.9944937       -29.45545
0.016                  0.9978661       -38.88378
0.02                    1.001359       -48.00014
0.024                   1.004519        -56.7509
0.028                   1.006947       -65.09407
0.032                   1.008358       -72.99886
0.036                   1.008607       -80.44495
0.04                     1.00771         -87.422
0.044                   1.005837       -93.92929
0.048                   1.003283       -99.97577
0.052                   1.000428         -105.58
0.056                  0.9976825         -110.77
0.06                   0.9954262       -115.5819
0.064                   0.993956       -120.0582
0.068                  0.9934426       -124.2453
0.072                  0.9939089       -128.1892
0.076                  0.9952322       -131.9327
0.08                   0.9971686       -135.5115
0.084                  0.9993955       -138.9529
0.088                   1.001564       -142.2742
0.092                   1.003352       -145.4837
0.096                   1.004513       -148.5821
0.1                     1.004904       -151.5649
0.104                   1.004507        -154.425
0.108                   1.003423       -157.1555
0.112                   1.001853       -159.7524
0.116                   1.000066       -162.2161
0.12                   0.9983539       -164.5529
0.124                   0.996985       -166.7749
0.128                  0.9961636        -168.899
0.132                  0.9959992       -170.9451
0.136                  0.9964912       -172.9338
0.14                   0.9975333       -174.8835
0.144                  0.9989351       -176.8084
0.148                   1.000456        -178.717
0.152                   1.001845        179.3883
0.156                   1.002882         177.511
0.16                    1.003415         175.659
0.164                   1.003374        173.8426
0.168                   1.002785        172.0727
0.172                   1.001764        170.3585
0.176                   1.000492        168.7058
0.18                   0.9991842        167.1158
0.184                   0.998059        165.5848
0.188                  0.9972972        164.1043
0.192                   0.997015        162.6625
0.196                  0.9972457         161.246
0.2                    0.9979358         159.842
0.204                  0.9989569        158.4399
0.208                   1.000129        157.0334
0.212                   1.001251        155.6207
0.216                   1.002137        154.2047
0.22                    1.002645        152.7922
0.224                   1.002698        151.3925
0.228                   1.002298        150.0159
0.232                   1.001521        148.6713
0.236                   1.000505        147.3655
0.24                   0.9994262        146.1011
0.244                  0.9984673        144.8769
0.248                  0.9977884        143.6872
0.252                   0.997499        142.5232
0.256                  0.9976414        141.3744
0.26                   0.9981826        140.2303
0.264                  0.9990229        139.0822
0.268                   1.000014        137.9242
0.272                   1.000983        136.7549
0.276                   1.001766        135.5765
0.28                    1.002233         134.395
0.284                   1.002309        133.2186
0.288                   1.001986        132.0567
0.292                   1.001324        130.9178
0.296                   1.000441        129.8082
0.3                    0.9994906        128.7312
0.304                  0.9986353        127.6861
0.308                  0.9980213        126.6684
0.312                  0.9977512        125.6707
0.316                  0.9978676        124.6837
0.32                   0.9983457        123.6983
0.324                  0.9990988        122.7064
0.328                  0.9999939         121.703
0.332                   1.000875        120.6863
0.336                   1.001591        119.6587
0.34                    1.002019        118.6254
0.344                   1.002089        117.5944
0.348                   1.001793        116.5741
0.352                   1.001184        115.5727
0.356                   1.000369        114.5962
0.36                   0.9994914        113.6478
0.364                  0.9987035        112.7271
0.368                  0.9981419        111.8299
0.372                  0.9979032        110.9493
0.376                  0.9980268        110.0769
0.38                   0.9984893        109.2039
0.384                  0.9992082         108.323
0.388                   1.000057        107.4292
0.392                   1.000887        106.5213
0.396                   1.001554        105.6016
0.4                     1.001943        104.6752
0.404                   1.001989        103.7497
0.408                   1.001683        102.8335
0.412                   1.001082        101.9343
0.416                   1.000289         101.058
0.42                   0.9994444        100.2074
0.424                   0.998695        99.38206
0.428                  0.9981721        98.57784
0.432                  0.9979668        97.78799
0.436                  0.9981144        97.00417
0.44                   0.9985882        96.21794
0.444                  0.9993042        95.42221
0.448                   1.000136        94.61258
0.452                   1.000938        93.78796
0.456                   1.001569        92.95081
0.46                    1.001919        92.10659
0.464                   1.001927        91.26287
0.468                   1.001592         90.4279
0.472                   1.000972        89.60933
0.476                   1.000176        88.81274
0.48                   0.9993436        88.04072
0.484                  0.9986209        87.29237
0.488                  0.9981355        86.56339
0.492                  0.9979737         85.8468
0.496                  0.9981641        85.13419
0.5                    0.9986733         84.4172
0.504                  0.9994116        83.68901
0.508                   1.000248        82.94555
0.512                   1.001036        82.18615
0.516                   1.001636        81.41371
0.52                     1.00194        80.63408
0.524                   1.001896        79.85508
0.528                   1.001509        79.08512
0.532                   1.000846        78.33173
0.536                   1.000022         77.6003
0.54                   0.9991817        76.89301
0.544                  0.9984738        76.20845
0.548                  0.9980234        75.54183
0.552                  0.9979112        74.88577
0.556                   0.998158        74.23157
0.56                   0.9987205        73.57086
0.564                  0.9994995        72.89695
0.568                   1.000357        72.20617
0.572                   1.001141        71.49843
0.576                   1.001712        70.77717
0.58                    1.001968        70.04887
0.584                   1.001861        69.32174
0.588                   1.001409        68.60445
0.592                    1.00069        67.90452
0.596                   0.999828        67.22702
0.6                    0.9989766        66.57363
0.604                  0.9982869        65.94231
0.608                  0.9978828        65.32757
0.612                   0.997838        64.72138
0.616                  0.9981624        64.11468
0.62                   0.9988003        63.49894
0.624                  0.9996396        62.86768
0.628                   1.000531        62.21773
0.632                   1.001317        61.54966
0.636                   1.001857        60.86778
0.64                    1.002052        60.17925
0.644                   1.001865        59.49291
0.648                   1.001327        58.81776
0.652                    1.00053        58.16132
0.656                  0.9996139        57.52833
0.66                   0.9987397        56.91982
0.664                  0.9980641        56.33295
0.668                  0.9977092        55.76129
0.672                  0.9977405        55.19608
0.676                  0.9981552        54.62771
0.68                   0.9988812        54.04747
0.684                  0.9997906        53.44916
0.688                   1.000721        52.83016
0.692                   1.001507        52.19193
0.696                   1.002007        51.53971
0.7                     1.002128        50.88161
0.704                   1.001845        50.22717
0.708                   1.001206        49.58576
0.712                   1.000319        48.96488
0.716                  0.9993418        48.36881
0.72                   0.9984469         47.7978
0.724                  0.9977958        47.24794
0.728                  0.9975076        46.71174
0.732                  0.9976377        46.17948
0.736                  0.9981663        45.64095
0.74                   0.9990016        45.08729
0.744                  0.9999963        44.51261
0.748                   1.000973        43.91507
0.752                   1.001757        43.29718
0.756                   1.002205        42.66535
0.76                    1.002233        42.02881
0.764                   1.001832        41.39793
0.768                   1.001068         40.7825
0.772                   1.000072        40.18993
0.776                  0.9990191        39.62396
0.78                   0.9980975        39.08382
0.784                  0.9974735        38.56436
0.788                  0.9972616        38.05683
0.792                  0.9975039        37.55039
0.796                  0.9981609        37.03416
0.8                    0.9991175        36.49915
0.804                   1.000204        35.93993
0.808                   1.001225        35.35558
0.812                   1.001996         34.7499
0.816                   1.002376        34.13068
0.82                    1.002291         33.5084
0.824                   1.001749        32.89433
0.828                   1.000842        32.29869
0.832                  0.9997259        31.72873
0.836                  0.9985979        31.18739
0.84                   0.9976604        30.67272
0.844                  0.9970844          30.178
0.848                  0.9969782        29.69295
0.852                  0.9973666        29.20555
0.856                  0.9981846        28.70416
0.86                   0.9992897        28.17973
0.864                   1.000485        27.62745
0.868                   1.001558        27.04759
0.872                   1.002311        26.44549
0.876                   1.002607        25.83057
0.88                    1.002386        25.21475
0.884                   1.001678        24.61037
0.888                   1.000603        24.02803
0.892                  0.9993484        23.47471
0.896                  0.9981356        22.95242
0.9                    0.9971833        22.45765
0.904                  0.9966664        21.98195
0.908                   0.996684        21.51326
0.912                  0.9972392        21.03816
0.916                  0.9982379        20.54426
0.92                   0.9995044        20.02257
0.924                   1.000813         19.4691
0.928                   1.001927        18.88558
0.932                   1.002643        18.27915
0.936                   1.002826        17.66116
0.94                    1.002433        17.04516
0.944                   1.001526        16.44459
0.948                   1.000257        15.87044
0.952                  0.9988485        15.32922
0.956                  0.9975504        14.82168
0.96                   0.9965986        14.34248
0.964                  0.9961709        13.88099
0.968                  0.9963527        13.42308
0.972                  0.9971198        12.95375
0.976                  0.9983418        12.45986
0.98                   0.9998042        11.93257
0.984                   1.001246        11.36897
0.988                   1.002407        10.77259
0.992                   1.003074        10.15279
0.996                   1.003118        9.523156
1                        1.00252        8.899118
1.004                   1.001376        8.295373
1.008                   0.999879        7.723266
1.012                  0.9982915        7.188696
1.016                   0.996897        6.690856
1.02                   0.9959501        6.222159
1.024                  0.9956296        5.769399
1.028                  0.9960032        5.316072
1.032                  0.9970135        4.845394
1.036                  0.9984863        4.343429
1.04                    1.000161        3.801678
1.044                   1.001736        3.218639
1.048                   1.002926        2.600065
1.052                   1.003508        1.957957
1.056                   1.003364        1.308506
1.06                    1.002504       0.6693558
1.064                   1.001066      0.05657919
1.068                  0.9992942      -0.5181686
1.072                  0.9974988       -1.049873
1.076                  0.9960022       -1.541329
1.08                     0.99508       -2.002945
1.084                  0.9949101       -2.451077
1.088                  0.9955367       -2.905134
1.092                  0.9968597       -3.383993
1.096                  0.9986508       -3.902456
1.1                     1.000593       -4.468519
1.104                   1.002339       -5.081815
1.108                   1.003568       -5.733961
1.112                    1.00405       -6.409631
1.116                    1.00368       -7.089535
1.12                    1.002505        -7.75332
1.124                   1.000714        -8.38331
1.128                  0.9986137       -8.967509
1.132                  0.9965725       -9.502013
1.136                   0.994959       -9.992101
1.14                   0.9940737       -10.45166
1.144                  0.9940916       -10.90091
1.148                   0.995027       -11.36279
1.152                  0.9967263       -11.85867
1.156                  0.9988945       -12.40428
1.16                    1.001146       -13.00684
1.164                   1.003074       -13.66376
1.168                   1.004321       -14.36308
1.172                   1.004647       -15.08557
1.176                   1.003966       -15.80791
1.18                    1.002371       -16.50657
1.184                   1.000119       -17.16178
1.188                   0.997594       -17.76118
1.192                   0.995239       -18.30233
1.196                  0.9934818       -18.79373
1.2                    0.9926545       -19.25381
1.204                  0.9929286       -19.70783
1.208                  0.9942788       -20.18332
1.212                  0.9964824       -20.70486
1.216                  0.9991573       -21.28943
1.22                    1.001829       -21.94329
1.224                   1.004014       -22.66087
1.228                   1.005307       -23.42583
1.232                    1.00545       -24.21379
1.236                   1.004382       -24.99629
1.24                    1.002254       -25.74551
1.244                  0.9994102       -26.43891
1.248                  0.9963331       -27.06346
1.252                  0.9935664        -27.6185
1.256                  0.9916169       -28.11669
1.26                   0.9908598       -28.58242
1.264                  0.9914639       -29.04767
1.268                  0.9933523       -29.54615
1.272                  0.9962114        -30.1068
1.276                  0.9995425        -30.7483
1.28                    1.002751       -31.47566
1.284                   1.005251       -32.27941
1.288                   1.006565       -33.13731
1.292                   1.006415       -34.01801
1.296                   1.004767       -34.88603
1.3                     1.001849       -35.70742
1.304                  0.9981245       -36.45548
1.308                  0.9942183       -37.11583
1.312                  0.9908169       -37.68999
1.316                  0.9885458       -38.19629
1.32                   0.9878504       -38.66766
1.324                  0.9889029       -39.14602
1.328                  0.9915599       -39.67437
1.332                  0.9953791       -40.28848
1.336                  0.9996952       -41.01002
1.34                    1.003736       -41.84273
1.344                   1.006757       -42.77192
1.348                   1.008171        -43.7672
1.352                   1.007651       -44.78724
1.356                    1.00519        -45.7861
1.36                    1.001121       -46.72028
1.364                  0.9960726       -47.55601
1.368                   0.990883       -48.27582
1.372                  0.9864624       -48.88345
1.376                   0.983632       -49.40523
1.38                   0.9829623       -49.88719
1.384                  0.9846501       -50.38712
1.388                  0.9884616       -50.96354
1.392                  0.9937611       -51.66407
1.396                  0.9996188        -52.5162
1.4                     1.004972       -53.52271
1.404                   1.008809       -54.66167
1.408                   1.010336       -55.89029
1.412                   1.009118       -57.15145
1.416                   1.005161       -58.38171
1.42                   0.9989366       -59.52035
1.424                  0.9913405       -60.51918
1.428                  0.9835741       -61.35226
1.432                  0.9769622       -62.02393
1.436                  0.9727197       -62.57271
1.44                   0.9717067       -63.06809
1.444                  0.9742301       -63.59911
1.448                  0.9799447        -64.2569
1.452                  0.9878892       -65.11595
1.456                  0.9966442       -66.21989
1.46                    1.004575       -67.57476
1.464                     1.0101       -69.14969
1.468                   1.011945       -70.88303
1.472                    1.00934       -72.69084
1.476                    1.00217       -74.47702
1.48                   0.9910396       -76.14449
1.484                  0.9772613       -77.60895
1.488                  0.9627385       -78.81546
1.492                  0.9497239         -79.757
1.496                  0.9404496       -80.49003
1.5                    0.9366639       -81.13889
1.504                  0.9391808       -81.88115
1.508                  0.9475809       -82.91416
1.512                  0.9601736       -84.41444
1.516                  0.9742256       -86.50643
1.52                   0.9863584       -89.25069
1.524                  0.9929822       -92.64961
1.528                  0.9906717       -96.66254
1.532                  0.9764433       -101.2215
1.536                  0.9479386       -106.2428
1.54                   0.9035329       -111.6333
1.544                  0.8423875       -117.2902
1.548                  0.7644659       -123.0935
1.552                  0.6705225       -128.8846
1.556                  0.5620888        -134.414
1.56                   0.4415033       -139.1923
1.564                  0.3122038       -141.9535
1.568                  0.1807685       -137.8022
1.572                 0.08202886       -94.39904
1.576                  0.1488506       -31.12712
1.58                   0.2784346       -22.63018
1.584                  0.4093907       -24.43874
1.588                  0.5328821       -28.93492
1.592                  0.6449853       -34.40859
1.596                  0.7430794       -40.25289
1.6                    0.8253771       -46.17747
1.604                  0.8908672       -52.00668
1.608                  0.9393288       -57.61186
1.612                  0.9713518       -62.88466
1.616                  0.9883372       -67.72642
1.62                   0.9924649       -72.04606
1.624                  0.9866114       -75.76462
1.628                  0.9741965       -78.82613
1.632                  0.9589362       -81.21395
1.636                  0.9444811       -82.96924
1.64                   0.9339647       -84.20268
1.644                  0.9295398       -85.08951
1.648                  0.9320476       -85.84128
1.652                  0.9409523       -86.66178
1.656                  0.9545847       -87.70523
1.66                   0.9705981        -89.0533
1.664                  0.9864803       -90.71508
1.668                  0.9999883       -92.64224
1.672                   1.009449       -94.74924
1.676                   1.013921       -96.93192
1.68                    1.013248       -99.08234
1.684                   1.008017       -101.1009
1.688                  0.9994437       -102.9069
1.692                  0.9891932       -104.4489
1.696                  0.9791277       -105.7133
1.7                    0.9710183       -106.7297
1.704                  0.9662485       -107.5685
1.708                   0.965572       -108.3292
1.712                  0.9689929       -109.1205
1.716                  0.9757976       -110.0378
1.72                   0.9847324       -111.1453
1.724                  0.9942664       -112.4679
1.728                   1.002873       -113.9919
1.732                   1.009274       -115.6728
1.736                   1.012609       -117.4455
1.74                    1.012537       -119.2357
1.744                   1.009252       -120.9695
1.748                   1.003436       -122.5831
1.752                  0.9961521       -124.0316
1.756                  0.9886723       -125.2958
1.76                   0.9822795       -126.3867
1.764                  0.9780512        -127.345
1.768                  0.9766715       -128.2347
1.772                  0.9783144       -129.1309
1.776                   0.982625       -130.1049
1.78                   0.9888057       -131.2111
1.784                  0.9957787       -132.4774
1.788                   1.002386       -133.9035
1.792                   1.007584       -135.4636
1.796                   1.010599       -137.1126
1.8                     1.011032       -138.7944
1.804                     1.0089       -140.4501
1.808                   1.004625       -142.0262
1.812                  0.9989599       -143.4818
1.816                  0.9928735       -144.7955
1.82                   0.9873941       -145.9688
1.824                  0.9834389       -147.0274
1.828                  0.9816568       -148.0171
1.832                  0.9823149       -148.9959
1.836                  0.9852561       -150.0225
1.84                   0.9899385       -151.1454
1.844                  0.9955438       -152.3946
1.848                    1.00113       -153.7773
1.852                   1.005793       -155.2789
1.856                   1.008806       -156.8666
1.86                     1.00973        -158.496
1.864                   1.008467       -160.1173
1.868                   1.005266       -161.6832
1.872                   1.000685       -163.1551
1.876                  0.9954981       -164.5092
1.88                   0.9905763       -165.7406
1.884                  0.9867425       -166.8652
1.888                  0.9846326       -167.9171
1.892                   0.984583       -168.9431
1.896                  0.9865741        -169.994
1.9                    0.9902393        -171.115
1.904                  0.9949372       -172.3376
1.908                  0.9998717       -173.6747
1.912                   1.004229       -175.1197
1.916                   1.007312       -176.6487
1.92                    1.008645       -178.2252
1.924                   1.008039       -179.8061
1.928                   1.005619         178.652
1.932                   1.001799        177.1866
1.936                  0.9972181        175.8235
1.94                    0.992639        174.5726
1.944                  0.9888248        173.4256
1.948                    0.98641        172.3565
1.952                  0.9857904        171.3264
1.956                  0.9870529        170.2898
1.96                   0.9899629        169.2037
1.964                  0.9940106        168.0347
1.968                  0.9985058        166.7656
1.972                   1.002699        165.3965
1.976                   1.005906        163.9443
1.98                    1.007615        162.4394
1.984                   1.007566        160.9199
1.988                   1.005779        159.4267
1.992                   1.002558        157.9966
1.996                  0.9984371        156.6575
2                      0.9940998        155.4235
2.004                  0.9902686        154.2921
2.008                  0.9875833         153.244
2.012                  0.9864917        152.2458
2.016                  0.9871686        151.2563
2.02                   0.9894854        150.2334
2.024                  0.9930362        149.1424
2.028                  0.9972121         147.962
2.032                    1.00131         146.687
2.036                    1.00465        145.3287
2.04                    1.006688        143.9123
2.044                   1.007096        142.4726
2.048                    1.00581        141.0482
2.052                   1.003044        139.6762
2.056                  0.9992487        138.3865
2.06                   0.9950492        137.1967
2.064                  0.9911418        136.1095
2.068                  0.9881799        135.1105
2.072                  0.9866606        134.1712
2.076                  0.9868363         133.253
2.08                    0.988669        132.3145
2.084                  0.9918374        131.3192
2.088                  0.9957964        130.2417
2.092                  0.9998736        129.0723
2.096                   1.003385        127.8174
2.1                     1.005748         126.498
2.104                    1.00657        125.1461
2.108                   1.005712        123.7993
2.112                   1.003307        122.4951
2.116                  0.9997394        121.2658
2.12                   0.9955899        120.1327
2.124                  0.9915423        119.1028
2.128                   0.988272        118.1666
2.132                  0.9863305        117.2991
2.136                  0.9860464        116.4637
2.14                   0.9874653        115.6188
2.144                  0.9903401        114.7255
2.148                  0.9941746        113.7544
2.152                  0.9983142        112.6909
2.156                   1.002057        111.5371
2.16                     1.00477        110.3103
2.164                   1.005993        109.0405
2.168                   1.005506        107.7648
2.172                   1.003366        106.5225
2.176                  0.9999003        105.3487
2.18                   0.9956584        104.2691
2.184                  0.9913278        103.2954
2.188                  0.9876244        102.4228
2.192                  0.9851714        101.6294
2.196                  0.9843873        100.8798
2.2                    0.9854086        100.1309
2.204                  0.9880615        99.34011
2.208                  0.9918911         98.4727
2.212                  0.9962423        97.50838
2.216                   1.000372        96.44399
2.22                    1.003573        95.29352
2.224                   1.005289        94.08531
2.228                   1.005201        92.85733
2.232                   1.003278        91.65164
2.236                   0.999784        90.50816
2.24                   0.9952472         89.4586
2.244                  0.9903803        88.52117
2.248                  0.9859718        87.69655
2.252                  0.9827556        86.96649
2.256                  0.9812811        86.29595
2.26                   0.9818099        85.63859
2.264                  0.9842614        84.94515
2.268                  0.9882216        84.17253
2.272                  0.9930127        83.29163
2.276                  0.9978088        82.29201
2.28                    1.001773        81.18306
2.284                   1.004191        79.99177
2.288                   1.004584        78.75844
2.292                   1.002785        77.53067
2.296                  0.9989702        76.35685
2.3                    0.9936468        75.27916
2.304                   0.987587        74.32671
2.308                  0.9817204        73.50971
2.312                  0.9769882        72.81566
2.316                  0.9741819        72.20927
2.32                   0.9737943        71.63699
2.324                  0.9759143        71.03592
2.328                  0.9801951        70.34547
2.332                  0.9859014        69.51843
2.336                  0.9920278        68.52925
2.34                   0.9974601        67.37755
2.344                    1.00115        66.08732
2.348                   1.002273        64.70288
2.352                   1.000356        63.28282