! TOUCHSTONE file generated by CST MICROWAVE STUDIO
! Date and time: Tue Jun  7 21:31:15 2022
! Project name: AppElm_antenne_patch_FR4.cst
! Parameters = {L=45; W=58.5; e=0.035; h=1.6; lambda=0.190476; ls=120; w0=1.36; w1=0.533; ws=120; y0=20; y1=23.81}
! Header version: 2018
! Port assignment regex: !\s*Touchstone port\s*([0-9]+)\s*=\s*(CST MWS port|CST DS port)\s*([0-9]+|Zmin|Zmax)\s*\(\"(.*)\"\)(\s*mode\s*([0-9]+))?.*
! Touchstone port assignment:
! Touchstone port 1 = CST MWS port 1 ("")
# GHz S MA R 50
0                      0.9894988              -0
0.004                  0.9901201       -9.918736
0.008                  0.9918996       -19.75252
0.012                  0.9945958       -29.42047
0.016                  0.9978473       -38.84919
0.02                    1.001226       -47.97509
0.024                   1.004297       -56.74563
0.028                   1.006678       -65.11942
0.032                   1.008091       -73.06589
0.036                   1.008389        -80.5646
0.04                    1.007581       -87.60478
0.044                    1.00582       -94.18499
0.048                   1.003381       -100.3131
0.052                   1.000624       -106.0064
0.056                  0.9979414       -111.2909
0.06                   0.9957007        -116.201
0.064                  0.9941952       -120.7773
0.068                  0.9936012       -125.0641
0.072                  0.9939557        -129.106
0.076                  0.9951557       -132.9446
0.08                   0.9969794       -136.6156
0.084                  0.9991246       -140.1463
0.088                   1.001257       -143.5549
0.092                   1.003062       -146.8506
0.096                   1.004289       -150.0352
0.1                     1.004786       -153.1052
0.104                   1.004517       -156.0541
0.108                    1.00356       -158.8754
0.112                   1.002097       -161.5645
0.116                   1.000376       -164.1214
0.12                   0.9986775       -166.5511
0.124                  0.9972663       -168.8644
0.128                  0.9963538       -171.0767
0.132                  0.9960644       -173.2072
0.136                   0.996419       -175.2756
0.14                   0.9973351       -177.3003
0.144                  0.9986438       -179.2962
0.148                    1.00012        178.7273
0.152                   1.001522        176.7666
0.156                   1.002628        174.8237
0.16                    1.003271        172.9053
0.164                   1.003365        171.0211
0.168                   1.002913        169.1815
0.172                   1.002008         167.396
0.176                   1.000809        165.6712
0.18                   0.9995208        164.0093
0.184                  0.9983567         162.408
0.188                  0.9975044        160.8603
0.192                  0.9970956        159.3553
0.196                  0.9971851        157.8804
0.2                    0.9977441        156.4226
0.204                  0.9986671         154.971
0.208                  0.9997903        153.5182
0.212                   1.000922         152.061
0.216                   1.001875        150.6009
0.22                    1.002494        149.1437
0.224                   1.002684        147.6977
0.228                   1.002423        146.2727
0.232                   1.001765        144.8782
0.236                   1.000826        143.5212
0.24                   0.9997688         142.206
0.244                  0.9987726        140.9323
0.248                  0.9980036         139.696
0.252                  0.9975875        138.4895
0.256                  0.9975874        137.3028
0.26                   0.9979961        136.1255
0.264                  0.9987367        134.9482
0.268                  0.9996775        133.7643
0.272                   1.000656        132.5707
0.276                   1.001504        131.3685
0.28                    1.002082        130.1622
0.284                   1.002295        128.9594
0.288                   1.002111        127.7688
0.292                   1.001568        126.5993
0.296                   1.000761        125.4581
0.3                    0.9998317        124.3494
0.304                  0.9989386        123.2739
0.308                  0.9982345        122.2287
0.312                  0.9978377        121.2072
0.316                  0.9978127         120.201
0.32                   0.9981598        119.2008
0.324                  0.9988152         118.198
0.328                  0.9996628        117.1865
0.332                   1.000554        116.1634
0.336                   1.001337        115.1294
0.34                    1.001877        114.0887
0.344                   1.002083        113.0482
0.348                   1.001924        112.0162
0.352                    1.00143         111.001
0.356                   1.000687        110.0095
0.36                   0.9998267         109.046
0.364                  0.9989976        108.1113
0.368                  0.9983433        107.2029
0.372                   0.997977        106.3147
0.376                  0.9979608         105.439
0.38                   0.9982954        104.5669
0.384                   0.998921        103.6904
0.388                  0.9997269        102.8037
0.392                   1.000572        101.9041
0.396                    1.00131        100.9924
0.4                     1.001812        100.0727
0.404                   1.001993        99.15173
0.408                   1.001822        98.23753
0.412                   1.001331        97.33821
0.416                   1.000604        96.46042
0.42                   0.9997703        95.60825
0.424                  0.9989746        94.78246
0.428                  0.9983561        93.98035
0.432                  0.9980231        93.19614
0.436                  0.9980334        92.42198
0.44                   0.9983847        91.64933
0.444                  0.9990145         90.8705
0.448                  0.9998115        90.07993
0.452                   1.000636        89.27523
0.456                   1.001343        88.45741
0.46                    1.001808        87.63087
0.464                    1.00195        86.80241
0.468                   1.001746        85.98015
0.472                   1.001229        85.17206
0.476                   1.000491        84.38461
0.48                   0.9996603        83.62161
0.484                  0.9988842        82.88351
0.488                  0.9982995        82.16724
0.492                  0.9980095        81.46679
0.496                  0.9980663        80.77415
0.5                    0.9984601        80.08078
0.504                  0.9991215        79.37916
0.508                  0.9999337        78.66401
0.512                   1.000753        77.93337
0.516                   1.001434         77.1888
0.52                    1.001857        76.43507
0.524                   1.001946        75.67943
0.528                   1.001683        74.93016
0.532                   1.001114         74.1953
0.536                   1.000338         73.4811
0.54                   0.9994911        72.79101
0.544                  0.9987223        72.12497
0.548                  0.9981684        71.47939
0.552                  0.9979287        70.84765
0.556                  0.9980465        70.22143
0.56                    0.998502        69.59204
0.564                   0.999215          68.952
0.568                   1.000059        68.29647
0.572                   1.000884        67.62402
0.576                   1.001542        66.93686
0.58                    1.001917        66.24047
0.584                   1.001939        65.54261
0.588                   1.001604        64.85193
0.592                   1.000967        64.17652
0.596                   1.000141        63.52246
0.6                    0.9992709        62.89265
0.604                  0.9985116        62.28636
0.608                  0.9979998        61.69918
0.612                  0.9978286        61.12381
0.616                  0.9980305        60.55136
0.62                   0.9985717        59.97291
0.624                   0.999357        59.38111
0.628                   1.000247         58.7716
0.632                   1.001083        58.14365
0.636                   1.001716        57.50037
0.64                    1.002031        56.84811
0.644                   1.001969        56.19536
0.648                   1.001538        55.55122
0.652                   1.000813         54.9239
0.656                  0.9999188        54.31913
0.66                   0.9990152        53.73924
0.664                  0.9982633        53.18254
0.668                   0.997799        52.64367
0.672                  0.9977077         52.1144
0.676                  0.9980088        51.58517
0.68                   0.9986507        51.04678
0.684                  0.9995199        50.49207
0.688                   1.000461        49.91727
0.692                   1.001307        49.32257
0.696                   1.001904        48.71215
0.7                     1.002142        48.09343
0.704                   1.001977        47.47573
0.708                   1.001432        46.86868
0.712                   1.000603         46.2805
0.716                  0.9996347        45.71654
0.72                   0.9986993        45.17827
0.724                  0.9979656        44.66288
0.728                  0.9975681        44.16378
0.732                  0.9975815        43.67166
0.736                  0.9980072        43.17623
0.74                   0.9987722        42.66798
0.744                   0.999741         42.1401
0.748                   1.000741        41.58955
0.752                   1.001592        41.01771
0.756                   1.002139        40.43005
0.76                    1.002281        39.83524
0.764                   1.001987        39.24359
0.768                   1.001305        38.66525
0.772                   1.000353        38.10843
0.776                  0.9992971        37.57791
0.78                   0.9983269        37.07409
0.784                  0.9976177        36.59281
0.788                  0.9973004        36.12604
0.792                   0.997436        35.66321
0.796                  0.9980042        35.19322
0.8                    0.9989058         34.7064
0.804                  0.9999805        34.19632
0.808                   1.001035        33.66098
0.812                   1.001878        33.10313
0.816                   1.002355        32.52981
0.82                    1.002375        31.95109
0.824                   1.001928        31.37834
0.828                   1.001088        30.82221
0.832                  0.9999993        30.29077
0.836                  0.9988562        29.78799
0.84                   0.9978633        29.31294
0.844                  0.9972022         28.8598
0.848                  0.9969968        28.41883
0.852                  0.9972902        27.97808
0.856                  0.9980345        27.52559
0.86                   0.9990997         27.0516
0.864                   1.000297        26.55034
0.868                   1.001409         26.0211
0.872                   1.002235        25.46833
0.876                   1.002622        24.90087
0.88                    1.002493        24.33041
0.884                   1.001864        23.76946
0.888                    1.00084        23.22916
0.892                  0.9995998        22.71727
0.896                  0.9983635        22.23671
0.9                    0.9973545         21.7849
0.904                  0.9967589        21.35404
0.908                  0.9966903        20.93245
0.912                  0.9971678        20.50665
0.916                  0.9981111        20.06387
0.92                   0.9993539        19.59439
0.924                   1.000674        19.09336
0.928                   1.001832        18.56169
0.932                   1.002616        18.00586
0.936                   1.002877        17.43679
0.94                    1.002561        16.86799
0.944                   1.001714        16.31313
0.948                   1.000479        15.78375
0.952                  0.9990723        15.28708
0.956                  0.9977458        14.82463
0.96                   0.9967412        14.39176
0.964                  0.9962462         13.9783
0.968                   0.996359        13.57032
0.972                  0.9970683        13.15266
0.976                  0.9982533        12.71173
0.98                   0.9997051        12.23808
0.984                   1.001164        11.72812
0.988                   1.002365        11.18475
0.992                   1.003087        10.61692
0.996                   1.003191        10.03798
1                       1.002647        9.463438
1.004                   1.001542        8.908277
1.008                   1.000063        8.384309
1.012                  0.9984707         7.89798
1.016                  0.9970513        7.449027
1.02                   0.9960651        7.030287
1.024                  0.9956991         6.62879
1.028                  0.9960302        6.228035
1.032                  0.9970082        5.811027
1.036                  0.9984646        5.363454
1.04                     1.00014        4.876376
1.044                   1.001733        4.347869
1.048                   1.002951        3.783368
1.052                   1.003567        3.194702
1.056                   1.003456        2.598063
1.06                    1.002622         2.01124
1.064                     1.0012        1.450554
1.068                  0.9994328       0.9279629
1.072                  0.9976318       0.4487643
1.076                  0.9961226      0.01037414
1.08                   0.9951849      -0.3975152
1.084                  0.9950005      -0.7912865
1.088                  0.9956171       -1.190481
1.092                   0.996936       -1.614163
1.096                  0.9987283       -2.077323
1.1                     1.000675       -2.588071
1.104                   1.002425       -3.146158
1.108                   1.003656       -3.743043
1.112                   1.004135       -4.363306
1.116                   1.003759       -4.987504
1.12                    1.002574       -5.595063
1.124                   1.000775        -6.16828
1.128                  0.9986696       -6.695109
1.132                  0.9966324       -7.171808
1.136                  0.9950335       -7.603905
1.14                   0.9941733       -8.005605
1.144                  0.9942243       -8.397439
1.148                  0.9951948       -8.802558
1.152                  0.9969244       -9.242358
1.156                  0.9991104       -9.732423
1.16                    1.001362       -10.27961
1.164                   1.003268       -10.88083
1.168                   1.004475        -11.5236
1.172                   1.004746        -12.1882
1.176                   1.004006       -12.85098
1.18                    1.002359       -13.48832
1.184                   1.000074       -14.08068
1.188                  0.9975444       -14.61619
1.192                  0.9952195       -15.09319
1.196                  0.9935259       -15.52108
1.2                    0.9927876       -15.91912
1.204                  0.9931623       -16.31319
1.208                  0.9946061       -16.73098
1.212                  0.9968781       -17.19677
1.216                  0.9995805       -17.72677
1.22                     1.00223       -18.32612
1.224                   1.004343       -18.98802
1.228                   1.005523       -19.69496
1.232                   1.005529       -20.42167
1.236                   1.004326       -21.13929
1.24                    1.002089       -21.82011
1.244                  0.9991857       -22.44236
1.248                  0.9961168       -22.99432
1.252                  0.9934309       -23.47707
1.256                  0.9916273       -23.90511
1.26                   0.9910599       -24.30436
1.264                  0.9918655       -24.70775
1.268                  0.9939305       -25.14896
1.272                  0.9969061       -25.65598
1.276                   1.000268       -26.24572
1.28                    1.003411       -26.92091
1.284                   1.005754       -27.66978
1.288                   1.006843       -28.46808
1.292                   1.006436       -29.28309
1.296                   1.004545       -30.07886
1.3                     1.001445       -30.82199
1.304                   0.997639       -31.48745
1.308                  0.9937779       -32.06349
1.312                  0.9905527       -32.55482
1.316                  0.9885684        -32.9831
1.32                   0.9882265       -33.38383
1.324                  0.9896386       -33.80021
1.328                  0.9925944       -34.27481
1.332                  0.9965931       -34.84121
1.336                   1.000929       -35.51763
1.34                    1.004817       -36.30372
1.344                   1.007531       -37.18083
1.348                   1.008528        -38.1153
1.352                   1.007549       -39.06373
1.356                   1.004669       -39.97967
1.36                    1.000299       -40.82088
1.364                  0.9951374       -41.55671
1.368                  0.9900612       -42.17445
1.372                  0.9859833       -42.68361
1.376                  0.9836826       -43.11636
1.38                   0.9836473       -43.52312
1.384                  0.9859633        -43.9636
1.388                  0.9902796       -44.49495
1.392                  0.9958597       -45.16045
1.396                    1.00171       -45.98119
1.4                     1.006753       -46.95275
1.404                   1.010013       -48.04641
1.408                   1.010782       -49.21399
1.412                   1.008745       -50.39501
1.416                   1.004051       -51.52522
1.42                    0.997312       -52.54607
1.424                  0.9895458       -53.41479
1.428                  0.9820275       -54.11402
1.432                  0.9760873       -54.65898
1.436                  0.9728632       -55.09931
1.44                   0.9730597       -55.51319
1.444                  0.9767738       -55.99322
1.448                  0.9834372       -56.62765
1.452                  0.9918984       -57.48225
1.456                   1.000618        -58.5882
1.46                    1.007933       -59.93798
1.464                   1.012327       -61.48838
1.468                   1.012674       -63.16773
1.472                   1.008427       -64.88525
1.476                  0.9997333       -66.54181
1.48                   0.9874821       -68.04209
1.484                  0.9732505       -69.30976
1.488                  0.9591399       -70.30544
1.492                  0.9474773       -71.04531
1.496                  0.9403912        -71.6135
1.5                    0.9393297       -72.15963
1.504                  0.9446422       -72.87534
1.508                  0.9553737        -73.9553
1.512                  0.9693412       -75.55777
1.516                  0.9834552       -77.78015
1.52                   0.9941544       -80.65509
1.524                  0.9978342       -84.16133
1.528                  0.9911901       -88.23963
1.532                  0.9714592       -92.80714
1.536                  0.9365748        -97.7657
1.54                   0.8852534       -103.0038
1.544                  0.8170362       -108.3903
1.548                  0.7323047       -113.7553
1.552                  0.6322913       -118.8451
1.556                  0.5191434       -123.2072
1.56                   0.3962224       -125.8495
1.564                  0.2695312       -123.9568
1.568                   0.156489       -106.7424
1.572                  0.1310524       -54.20469
1.576                  0.2267979       -25.15825
1.58                   0.3521205       -20.02686
1.584                  0.4774022       -21.63611
1.588                  0.5945492       -25.62529
1.592                  0.6995305       -30.61237
1.596                  0.7897923       -36.01684
1.6                    0.8637521       -41.53413
1.604                  0.9206912       -46.97125
1.608                  0.9607398       -52.18481
1.612                  0.9848728       -57.05497
1.616                  0.9948865       -61.47537
1.62                   0.9933398       -65.35208
1.624                  0.9834331       -68.61027
1.628                  0.9688078       -71.20741
1.632                  0.9532342       -73.15131
1.636                   0.940192        -74.5164
1.64                   0.9323906       -75.44808
1.644                  0.9313464       -76.14553
1.648                  0.9371742       -76.82295
1.652                  0.9486876       -77.66347
1.656                  0.9637781       -78.78511
1.66                   0.9799281       -80.23007
1.664                  0.9947017       -81.97414
1.668                   1.006117       -83.94579
1.672                   1.012874       -86.04651
1.676                   1.014453       -88.16752
1.68                    1.011116       -90.20322
1.684                   1.003824       -92.06252
1.688                  0.9940754       -93.67925
1.692                  0.9836894       -95.02201
1.696                  0.9745225       -96.10135
1.7                    0.9681668       -96.97096
1.704                  0.9656736       -97.72028
1.708                  0.9673729       -98.45706
1.712                  0.9728395       -99.28517
1.716                  0.9810154       -100.2838
1.72                   0.9904464       -101.4948
1.724                  0.9995677         -102.92
1.728                   1.006969       -104.5262
1.732                   1.011601       -106.2554
1.736                   1.012904       -108.0355
1.74                    1.010856       -109.7912
1.744                   1.005956       -111.4536
1.748                  0.9991319        -112.969
1.752                  0.9915957       -114.3075
1.756                  0.9846527       -115.4679
1.76                   0.9794849       -116.4797
1.764                  0.9769481       -117.3989
1.768                  0.9774221       -118.2979
1.772                  0.9807524       -119.2512
1.776                  0.9862972       -120.3209
1.78                   0.9930651       -121.5458
1.784                  0.9999075       -122.9362
1.788                   1.005718       -124.4754
1.792                   1.009608        -126.125
1.796                   1.011029       -127.8321
1.8                     1.009841        -129.538
1.804                   1.006317       -131.1866
1.808                   1.001095       -132.7315
1.812                   0.995077       -134.1434
1.816                   0.989283       -135.4151
1.82                   0.9846871       -136.5634
1.824                  0.9820509       -137.6271
1.828                  0.9817908       -138.6604
1.832                  0.9839069       -139.7229
1.836                   0.987994       -140.8676
1.84                   0.9933255       -142.1319
1.844                  0.9989923       -143.5315
1.848                   1.004063       -145.0598
1.852                   1.007738       -146.6903
1.856                   1.009463       -148.3822
1.86                    1.009012       -150.0872
1.864                   1.006505       -151.7567
1.868                    1.00239       -153.3482
1.872                  0.9973661       -154.8321
1.876                  0.9922775        -156.196
1.88                    0.987975       -157.4479
1.884                  0.9851739       -158.6153
1.888                  0.9843297       -159.7405
1.892                  0.9855597       -160.8736
1.896                   0.988626       -162.0623
1.9                    0.9929855       -163.3437
1.904                  0.9978923        -164.738
1.908                   1.002531       -166.2458
1.912                   1.006153       -167.8496
1.916                    1.00819       -169.5173
1.92                    1.008342        -171.208
1.924                    1.00661       -172.8779
1.928                   1.003299       -174.4869
1.932                  0.9989635        -176.004
1.936                  0.9943235       -177.4129
1.94                   0.9901503       -178.7145
1.944                  0.9871371       -179.9277
1.948                  0.9857812        178.9134
1.952                  0.9862957        177.7655
1.956                  0.9885744        176.5841
1.96                   0.9922134        175.3317
1.964                  0.9965888        173.9842
1.968                   1.000967        172.5349
1.972                   1.004629        170.9941
1.976                   1.006987         169.387
1.98                    1.007675         167.749
1.984                   1.006595        166.1203
1.988                   1.003935        164.5398
1.992                   1.000139        163.0397
1.996                  0.9958332        161.6401
2                       0.991733        160.3457
2.004                  0.9885217        159.1442
2.008                  0.9867357         158.008
2.012                  0.9866694        156.8987
2.016                  0.9883233         155.774
2.02                   0.9914048        154.5956
2.024                  0.9953833        153.3361
2.028                  0.9995861        151.9833
2.032                   1.003314        150.5419
2.036                   1.005956        149.0315
2.04                    1.007084        147.4832
2.044                   1.006521        145.9345
2.048                    1.00436        144.4238
2.052                   1.000957        142.9846
2.056                  0.9968683        141.6403
2.06                   0.9927715        140.4004
2.064                  0.9893504        139.2578
2.068                    0.98718        138.1898
2.072                   0.986626        137.1615
2.076                  0.9877776        136.1319
2.08                   0.9904313        135.0617
2.084                  0.9941285        133.9202
2.088                   0.998239        132.6906
2.092                    1.00207        131.3726
2.096                   1.004982        129.9812
2.1                     1.006493        128.5446
2.104                    1.00635        127.0984
2.108                   1.004572        125.6812
2.112                   1.001443        124.3281
2.116                  0.9974703        123.0656
2.12                   0.9933098        121.9073
2.124                  0.9896569        120.8506
2.128                  0.9871297        119.8764
2.132                  0.9861608        118.9522
2.136                  0.9869165        118.0375
2.14                   0.9892654         117.091
2.144                  0.9928024        116.0788
2.148                  0.9969197        114.9796
2.152                   1.000916         113.789
2.156                   1.004114        112.5184
2.16                     1.00597        111.1938
2.164                   1.006163        109.8503
2.168                   1.004642        108.5273
2.172                   1.001636        107.2625
2.176                  0.9976231        106.0861
2.18                    0.993257        105.0155
2.184                  0.9892639        104.0522
2.188                  0.9863207          103.18
2.192                  0.9849353        102.3677
2.196                  0.9853524        101.5736
2.2                     0.987505        100.7536
2.204                   0.991024        99.86896
2.208                  0.9953039        98.89391
2.212                  0.9996088        97.81933
2.216                   1.003199        96.65398
2.22                    1.005451        95.42227
2.224                    1.00596         94.1602
2.228                   1.004602        92.90968
2.232                   1.001558        91.71239
2.236                  0.9972907        90.60348
2.24                   0.9924785         89.6057
2.244                  0.9879109        88.72488
2.248                  0.9843589        87.94768
2.252                  0.9824386        87.24273
2.256                   0.982496        86.56536
2.26                   0.9845364        85.86571
2.264                  0.9882171        85.09802
2.268                  0.9929056        84.22916
2.272                  0.9977887        83.24425
2.276                   1.002012        82.14862
2.28                    1.004819         80.9663
2.284                   1.005674        79.73583
2.288                   1.004348         78.5044
2.292                   1.000961        77.32115
2.296                  0.9959723        76.23003
2.3                    0.9901257        75.26263
2.304                  0.9843414        74.43213
2.308                  0.9795718        73.72903
2.312                  0.9766366        73.12063
2.316                  0.9760667        72.55515
2.32                    0.977994        71.97051
2.324                  0.9821094        71.30583
2.328                  0.9877071        70.51306
2.332                  0.9937999        69.56543
2.336                   0.999283        68.46148
2.34                    1.003111        67.22437
2.344                   1.004462         65.8979
2.348                   1.002865        64.54019
2.352                  0.9982869        63.21625