! TOUCHSTONE file generated by CST MICROWAVE STUDIO
! Date and time: Tue Jun  7 21:31:22 2022
! Project name: AppElm_antenne_patch_FR4.cst
! Parameters = {L=45; W=58.5; e=0.035; h=1.6; lambda=0.190476; ls=120; w0=1.92; w1=0.533; ws=120; y0=20; y1=23.81}
! Header version: 2018
! Port assignment regex: !\s*Touchstone port\s*([0-9]+)\s*=\s*(CST MWS port|CST DS port)\s*([0-9]+|Zmin|Zmax)\s*\(\"(.*)\"\)(\s*mode\s*([0-9]+))?.*
! Touchstone port assignment:
! Touchstone port 1 = CST MWS port 1 ("")
# GHz S MA R 50
0                      0.9888341              -0
0.004                   0.989508       -9.956997
0.008                  0.9914358       -19.82369
0.012                  0.9943504       -29.51433
0.016                  0.9978526       -38.95143
0.02                    1.001472       -48.06839
0.024                   1.004734        -56.8106
0.028                   1.007226       -65.13556
0.032                   1.008652       -73.01226
0.036                   1.008867       -80.42049
0.04                    1.007894       -87.35021
0.044                   1.005915       -93.80127
0.048                   1.003245       -99.78342
0.052                   1.000282       -105.3164
0.056                   0.997456       -110.4296
0.06                   0.9951596       -115.1607
0.064                  0.9936956       -119.5543
0.068                  0.9932333       -123.6582
0.072                  0.9937855       -127.5201
0.076                  0.9952135       -131.1837
0.08                   0.9972543       -134.6852
0.084                  0.9995667       -138.0519
0.088                   1.001787       -141.3005
0.092                   1.003585       -144.4387
0.096                   1.004712       -147.4661
0.1                     1.005032       -150.3772
0.104                    1.00454       -153.1645
0.108                   1.003352       -155.8207
0.112                    1.00169       -158.3417
0.116                  0.9998383       -160.7286
0.12                   0.9980996       -162.9884
0.124                  0.9967483       -165.1342
0.128                  0.9959861        -167.184
0.132                  0.9959121       -169.1588
0.136                  0.9965099       -171.0796
0.14                    0.997655       -172.9649
0.144                  0.9991386       -174.8288
0.148                   1.000706        -176.679
0.152                   1.002098       -178.5169
0.156                   1.003096         179.662
0.16                    1.003552        177.8666
0.164                   1.003411        176.1078
0.168                   1.002717        174.3969
0.172                   1.001602        172.7431
0.176                   1.000264        171.1518
0.18                    0.998931        169.6232
0.184                  0.9978254        168.1526
0.188                  0.9971249        166.7306
0.192                   0.996935        165.3443
0.196                  0.9972733        163.9798
0.2                    0.9980673        162.6241
0.204                  0.9991706        161.2671
0.208                   1.000389         159.903
0.212                   1.001514         158.531
0.216                   1.002358        157.1552
0.22                    1.002787        155.7834
0.224                   1.002738        154.4255
0.228                    1.00223        153.0922
0.232                   1.001357        151.7923
0.236                   1.000275        150.5321
0.24                   0.9991693        149.3135
0.244                   0.998229        148.1341
0.248                  0.9976105        146.9872
0.252                  0.9974131        145.8632
0.256                  0.9976621        144.7509
0.26                   0.9983062        143.6397
0.264                  0.9992278        142.5211
0.268                   1.000264        141.3902
0.272                   1.001235        140.2464
0.276                   1.001976         139.093
0.28                    1.002363         137.937
0.284                   1.002337        136.7874
0.288                   1.001907        135.6537
0.292                   1.001151        134.5445
0.296                   1.000204        133.4657
0.3                    0.9992296        132.4196
0.304                   0.998396        131.4044
0.308                  0.9978451        130.4146
0.312                  0.9976687         129.442
0.316                  0.9978929        128.4768
0.32                   0.9984745        127.5096
0.324                  0.9993086        126.5328
0.328                   1.000248        125.5419
0.332                   1.001129        124.5364
0.336                   1.001801        123.5195
0.34                    1.002149        122.4977
0.344                   1.002116        121.4794
0.348                   1.001712        120.4736
0.352                   1.001009        119.4881
0.356                    1.00013        118.5288
0.36                   0.9992297        117.5977
0.364                  0.9984639        116.6933
0.368                  0.9979655        115.8107
0.372                  0.9978197         114.942
0.376                    0.99805        114.0781
0.38                   0.9986139        113.2102
0.384                  0.9994112        112.3314
0.388                   1.000302        111.4376
0.392                    1.00113        110.5283
0.396                   1.001752         109.607
0.4                     1.002061        108.6798
0.404                   1.002005         107.755
0.408                   1.001594        106.8412
0.412                   1.000903        105.9461
0.416                   1.000051         105.075
0.42                   0.9991882        104.2299
0.424                  0.9984656        103.4092
0.428                  0.9980094        102.6078
0.432                  0.9978995         101.818
0.436                  0.9981542        101.0311
0.44                   0.9987285        100.2386
0.444                  0.9995207        99.43373
0.448                   1.000391        98.61289
0.452                   1.001188        97.77604
0.456                    1.00177        96.92665
0.46                    1.002038        96.07117
0.464                   1.001943        95.21778
0.468                   1.001503        94.37506
0.472                   1.000794        93.55045
0.476                  0.9999404        92.74901
0.48                   0.9990913        91.97241
0.484                  0.9983961        91.21877
0.488                  0.9979773        90.48272
0.492                  0.9979092        89.75648
0.496                  0.9982038         89.0312
0.5                    0.9988093        88.29848
0.504                  0.9996189        87.55194
0.508                    1.00049         86.7883
0.512                   1.001268        86.00788
0.516                   1.001817        85.21465
0.52                    1.002038        84.41533
0.524                   1.001893        83.61835
0.528                   1.001404        82.83239
0.532                   1.000657        82.06476
0.536                  0.9997817        81.32024
0.54                   0.9989314        80.60012
0.544                  0.9982565        79.90199
0.548                  0.9978769        79.22005
0.552                  0.9978603        78.54615
0.556                  0.9982111        77.87116
0.56                   0.9988677        77.18675
0.564                  0.9997145        76.48671
0.568                   1.000602        75.76817
0.572                   1.001372        75.03204
0.576                   1.001889         74.2828
0.58                     1.00206        73.52775
0.584                   1.001852        72.77573
0.588                     1.0013        72.03555
0.592                   1.000498         71.3145
0.596                  0.9995876        70.61706
0.6                    0.9987281        69.94401
0.604                  0.9980724        69.29228
0.608                  0.9977379        68.65542
0.612                  0.9977859         68.0247
0.616                  0.9982099        67.39067
0.62                   0.9989364        66.74486
0.624                  0.9998371        66.08135
0.628                   1.000753         65.3977
0.632                   1.001521        64.69553
0.636                   1.002005        63.98006
0.64                    1.002116        63.25931
0.644                   1.001831        62.54263
0.648                   1.001199        61.83912
0.652                   1.000328        61.15605
0.656                  0.9993696         60.4975
0.66                   0.9984946        59.86366
0.664                  0.9978588        59.25061
0.668                  0.9975773        58.65109
0.672                  0.9977032        58.05561
0.676                  0.9982167        57.45428
0.68                   0.9990286        56.83849
0.684                  0.9999964        56.20256
0.688                   1.000948         55.5447
0.692                   1.001714        54.86731
0.696                   1.002156        54.17659
0.7                     1.002194        53.48138
0.704                   1.001815        52.79173
0.708                   1.001084        52.11707
0.712                   1.000126        51.46461
0.716                  0.9991089        50.83799
0.72                   0.9982135        50.23662
0.724                  0.9976004        49.65559
0.728                  0.9973817        49.08658
0.732                  0.9976001        48.51924
0.736                  0.9982197        47.94312
0.74                   0.9991329        47.34946
0.744                   1.000178        46.73293
0.748                    1.00117        46.09246
0.752                   1.001931        45.43149
0.756                   1.002321        44.75729
0.76                    1.002268        44.07978
0.764                   1.001775        43.40976
0.768                   1.000926        42.75706
0.772                  0.9998647        42.12878
0.776                  0.9987789        41.52804
0.78                   0.9978616        40.95322
0.784                  0.9972783        40.39825
0.788                  0.9971368        39.85357
0.792                  0.9974665         39.3078
0.796                  0.9982125        38.74983
0.8                    0.9992447        38.17082
0.804                    1.00038        37.56584
0.808                   1.001416        36.93474
0.812                   1.002166        36.28216
0.816                   1.002492        35.61673
0.82                     1.00233        34.94954
0.824                   1.001703        34.29229
0.828                   1.000714        33.65522
0.832                  0.9995352        33.04528
0.836                  0.9983735        32.46486
0.84                   0.9974366         31.9112
0.844                  0.9968947        31.37678
0.848                  0.9968494        30.85057
0.852                  0.9973144           30.32
0.856                  0.9982114        29.77325
0.86                   0.9993832        29.20141
0.864                   1.000622        28.60012
0.868                   1.001707        27.97034
0.872                    1.00244        27.31816
0.876                   1.002686        26.65376
0.88                    1.002394        25.98965
0.884                   1.001607        25.33851
0.888                   1.000457          24.711
0.892                  0.9991438        24.11386
0.896                  0.9978991        23.54856
0.9                    0.9969465        23.01094
0.904                  0.9964609        22.49173
0.908                  0.9965355        21.97822
0.912                   0.997164        21.45646
0.916                  0.9982398        20.91387
0.92                   0.9995745        20.34151
0.924                   1.000931        19.73577
0.928                   1.002066        19.09895
0.932                   1.002774        18.43889
0.936                    1.00292        17.76759
0.94                    1.002469        17.09916
0.944                   1.001492        16.44743
0.948                   1.000153         15.8235
0.952                  0.9986846        15.23377
0.956                  0.9973475        14.67859
0.96                   0.9963832        14.15207
0.964                  0.9959704        13.64291
0.968                  0.9961917        13.13637
0.972                  0.9970157        12.61695
0.976                  0.9983024        12.07119
0.98                   0.9998257        11.49025
0.984                   1.001315        10.87144
0.988                   1.002502         10.2187
0.992                   1.003169        9.541946
0.996                   1.003188        8.855335
1                       1.002543        8.174863
1.004                   1.001337        7.515644
1.008                  0.9997717        6.889269
1.012                  0.9981209        6.301659
1.016                  0.9966776        5.751807
1.02                   0.9957041         5.23171
1.024                  0.9953833        4.727607
1.028                  0.9957831        4.222378
1.032                  0.9968424        3.698664
1.036                  0.9983795        3.142089
1.04                    1.000124        2.543921
1.044                   1.001765        1.902652
1.048                   1.003007        1.224247
1.052                   1.003618        0.521109
1.056                   1.003476      -0.1900427
1.06                    1.002592      -0.8909795
1.064                   1.001105       -1.565058
1.068                  0.9992663       -2.200146
1.072                  0.9973965       -2.790915
1.076                  0.9958283       -3.340075
1.08                   0.9948485       -3.858196
1.084                   0.994644        -4.36205
1.088                  0.9952647       -4.871649
1.092                  0.9966121       -5.406569
1.096                  0.9984544       -5.982308
1.1                     1.000467       -6.607324
1.104                   1.002291       -7.281764
1.108                   1.003594       -7.997103
1.112                   1.004131       -8.737988
1.116                   1.003789       -9.484473
1.12                    1.002608       -10.21566
1.124                   1.000774       -10.91308
1.128                   0.998599       -11.56384
1.132                  0.9964598       -12.16337
1.136                  0.9947396       -12.71648
1.14                   0.9937554       -13.23694
1.144                  0.9936991       -13.74528
1.148                  0.9945985       -14.26511
1.152                  0.9963084        -14.8188
1.156                  0.9985344       -15.42321
1.16                    1.000884        -16.0866
1.164                   1.002938       -16.80719
1.168                   1.004319        -17.5735
1.172                   1.004764        -18.3663
1.176                    1.00417       -19.16183
1.18                    1.002612       -19.93567
1.184                   1.000338       -20.66689
1.188                  0.9977309        -21.3417
1.192                  0.9952446       -21.95634
1.196                  0.9933254       -22.51822
1.2                    0.9923312       -23.04519
1.204                  0.9924621        -23.5626
1.208                  0.9937183       -24.09883
1.212                  0.9958961       -24.67986
1.216                  0.9986207       -25.32444
1.22                    1.001412        -26.0406
1.224                   1.003769       -26.82429
1.228                   1.005258       -27.66014
1.232                   1.005589       -28.52409
1.236                   1.004665       -29.38724
1.24                     1.00261       -30.22056
1.244                  0.9997457       -30.99972
1.248                  0.9965528       -31.70943
1.252                  0.9935856       -32.34674
1.256                   0.991379       -32.92234
1.26                    0.990349       -33.45946
1.264                  0.9907116       -33.99002
1.268                  0.9924348       -34.54891
1.272                  0.9952383       -35.16727
1.276                    0.99864       -35.86666
1.28                     1.00204       -36.65507
1.284                   1.004825       -37.52563
1.288                   1.006477       -38.45791
1.292                   1.006661       -39.42129
1.296                   1.005287       -40.37986
1.3                     1.002534       -41.29795
1.304                   0.998826       -42.14611
1.308                  0.9947757       -42.90637
1.312                  0.9910825       -43.57635
1.316                  0.9884134       -44.17093
1.32                   0.9872776       -44.72076
1.324                  0.9879241       -45.26728
1.328                  0.9902843       -45.85515
1.332                  0.9939746       -46.52357
1.336                  0.9983604       -47.29876
1.34                    1.002666       -48.18929
1.344                   1.006108       -49.18477
1.348                   1.008034       -50.25786
1.352                   1.008029       -51.36864
1.356                   1.005997       -52.47072
1.36                    1.002183       -53.51819
1.364                  0.9971531       -54.47295
1.368                  0.9917169       -55.31172
1.372                  0.9868011       -56.03164
1.376                   0.983291       -56.65295
1.38                   0.9818629       -57.21744
1.384                  0.9828436       -57.78179
1.388                  0.9861295       -58.40711
1.392                  0.9911893       -59.14674
1.396                  0.9971505       -60.03606
1.4                     1.002952       -61.08605
1.404                   1.007522       -62.28217
1.408                   1.009962       -63.58705
1.412                   1.009695       -64.94653
1.416                    1.00657       -66.29721
1.42                    1.000906       -67.57524
1.424                  0.9934744       -68.72596
1.428                  0.9854061       -69.71386
1.432                  0.9780308       -70.53158
1.436                  0.9726553       -71.20574
1.44                   0.9703139       -71.79668
1.444                  0.9715437        -72.3898
1.448                  0.9762415       -73.07964
1.452                   0.983649       -73.95063
1.456                   0.992471       -75.06032
1.46                    1.001095        -76.4297
1.464                    1.00786       -78.04142
1.468                   1.011319       -79.84424
1.472                   1.010462       -81.76095
1.476                   1.004888       -83.69793
1.48                   0.9949013       -85.55556
1.484                  0.9815364       -87.24079
1.488                  0.9664887       -88.68231
1.492                  0.9519302       -89.84889
1.496                  0.9401924       -90.76746
1.5                    0.9333339       -91.53413
1.504                  0.9326627       -92.30898
1.508                  0.9383471       -93.28967
1.512                  0.9492512       -94.67151
1.516                  0.9630548       -96.60916
1.52                    0.976596       -99.19542
1.524                  0.9863094       -102.4602
1.528                  0.9886388       -106.3833
1.532                  0.9803597       -110.9115
1.536                  0.9588016       -115.9734
1.54                   0.9219841       -121.4897
1.544                  0.8686878       -127.3779
1.548                  0.7984802       -133.5526
1.552                  0.7117047       -139.9203
1.556                  0.6094459       -146.3636
1.56                   0.4934764       -152.7004
1.564                  0.3662121        -158.549
1.568                  0.2307984       -162.7032
1.572                  0.0929425       -156.8881
1.576                 0.06740342        -37.0989
1.58                   0.2035955       -23.43742
1.584                  0.3404607       -26.88781
1.588                  0.4700722       -32.59742
1.592                  0.5890302       -38.94334
1.596                  0.6947329       -45.46411
1.6                    0.7852104       -51.95414
1.604                  0.8591648       -58.28758
1.608                  0.9160296       -64.36685
1.612                   0.956015         -70.104
1.616                  0.9801319       -75.41363
1.62                   0.9901836       -80.21157
1.624                  0.9887157       -84.41878
1.628                  0.9789064       -87.97033
1.632                  0.9643724       -90.83013
1.636                  0.9488689       -93.00992
1.64                   0.9358767       -94.58652
1.644                  0.9281261       -95.70727
1.648                  0.9271718        -96.5738
1.652                  0.9331728       -97.40392
1.656                  0.9449806        -98.3852
1.66                   0.9605057       -99.64027
1.664                  0.9772266       -101.2154
1.668                  0.9926801       -103.0895
1.672                   1.004837       -105.1931
1.676                   1.012337       -107.4288
1.68                    1.014589       -109.6878
1.684                   1.011787       -111.8638
1.688                   1.004828       -113.8635
1.692                  0.9951687       -115.6172
1.696                   0.984615       -117.0886
1.7                    0.9750496       -118.2826
1.704                   0.968132       -119.2479
1.708                  0.9650135       -120.0704
1.712                  0.9661408       -120.8577
1.716                  0.9711952       -121.7168
1.72                   0.9791945       -122.7329
1.724                   0.988716       -123.9544
1.728                  0.9981787       -125.3896
1.732                   1.006117       -127.0102
1.736                   1.011397       -128.7612
1.74                     1.01336       -130.5716
1.744                   1.011885       -132.3652
1.748                   1.007381       -134.0703
1.752                   1.000714       -135.6294
1.756                  0.9930673       -137.0067
1.76                   0.9857615       -138.1948
1.764                  0.9800377       -139.2173
1.768                  0.9768472       -140.1261
1.772                  0.9766854       -140.9925
1.776                  0.9795092       -141.8929
1.78                   0.9847636       -142.8942
1.784                  0.9915029       -144.0415
1.788                  0.9985772       -145.3517
1.792                   1.004837       -146.8135
1.796                   1.009319        -148.392
1.8                     1.011379       -150.0362
1.804                   1.010778       -151.6871
1.808                   1.007704       -153.2863
1.812                   1.002725       -154.7839
1.816                  0.9967087       -156.1457
1.82                    0.990679       -157.3588
1.824                  0.9856535       -158.4347
1.828                  0.9824701       -159.4083
1.832                  0.9816422        -160.332
1.836                   0.983269       -161.2662
1.84                   0.9870265       -162.2676
1.844                  0.9922374       -163.3785
1.848                  0.9980034       -164.6204
1.852                   1.003367       -165.9912
1.856                   1.007472       -167.4682
1.86                     1.00969       -169.0126
1.864                   1.009713       -170.5764
1.868                   1.007589       -172.1096
1.872                   1.003705       -173.5671
1.876                  0.9987285       -174.9156
1.88                   0.9934999       -176.1385
1.884                  0.9888974       -177.2396
1.888                  0.9856902       -178.2432
1.892                  0.9844058       -179.1901
1.896                  0.9852364        179.8695
1.9                    0.9880091        178.8854
1.904                  0.9922237        177.8169
1.908                  0.9971495        176.6398
1.912                   1.001958        175.3496
1.916                   1.005863        173.9607
1.92                    1.008246        172.5034
1.924                   1.008749        171.0181
1.928                   1.007319         169.549
1.932                   1.004216        168.1381
1.936                  0.9999667        166.8183
1.94                    0.995284        165.6091
1.944                  0.9909517         164.512
1.948                  0.9876951        163.5104
1.952                  0.9860553        162.5716
1.956                  0.9862943        161.6524
1.96                   0.9883497         160.707
1.964                    0.99185        159.6958
1.968                  0.9961859        158.5923
1.972                   1.000621         157.387
1.976                    1.00442        156.0883
1.98                    1.006966        154.7198
1.984                   1.007858        153.3163
1.988                   1.006968         151.918
1.992                   1.004455        150.5645
1.996                   1.000741         149.289
2                      0.9964447         148.113
2.004                   0.992283        147.0428
2.008                  0.9889514        146.0673
2.012                  0.9870074          145.16
2.016                  0.9867703        144.2827
2.02                   0.9882658        143.3929
2.024                  0.9912226        142.4515
2.028                  0.9951243        141.4299
2.032                   0.999304        140.3145
2.036                   1.003061        139.1086
2.04                    1.005774        137.8308
2.044                   1.007005        136.5114
2.048                   1.006556        135.1875
2.052                   1.004507        133.8972
2.056                   1.001196        132.6743
2.06                   0.9971676        131.5425
2.064                  0.9930891        130.5119
2.068                  0.9896407        129.5764
2.072                  0.9873996        128.7141
2.076                  0.9867396        127.8908
2.08                   0.9877629        127.0664
2.084                  0.9902828        126.2016
2.088                   0.993859        125.2654
2.092                   0.997877        124.2407
2.096                   1.001657        123.1262
2.1                     1.004566         121.936
2.104                   1.006122        120.6968
2.108                   1.006066        119.4435
2.112                   1.004401        118.2135
2.116                   1.001392        117.0416
2.12                   0.9975235        115.9541
2.124                  0.9934288        114.9648
2.128                  0.9897844        114.0722
2.132                   0.987198        113.2586
2.136                   0.986103        112.4932
2.14                   0.9866792         111.737
2.144                  0.9888202        110.9499
2.148                  0.9921522        110.0983
2.152                  0.9961017        109.1606
2.156                  0.9999955        108.1309
2.16                    1.003175        107.0192
2.164                   1.005104        105.8489
2.168                   1.005448        104.6532
2.172                   1.004131        103.4699
2.176                   1.001344        102.3354
2.18                   0.9975213        101.2797
2.184                  0.9932701        100.3211
2.188                  0.9892811        99.46305
2.192                  0.9862123        98.69236
2.196                  0.9845765        97.98101
2.2                    0.9846478        97.29048
2.204                   0.986411        96.57862
2.208                   0.989561        95.80737
2.212                  0.9935567        94.94958
2.216                   0.997715        93.99344
2.22                    1.001326        92.94386
2.224                   1.003768        91.82119
2.228                   1.004606        90.65752
2.232                   1.003659        89.49173
2.236                   1.001028        88.36391
2.24                   0.9970882        87.30939
2.244                  0.9924359        86.35324
2.248                  0.9877988        85.50567
2.252                  0.9839235         84.7593
2.256                  0.9814486        84.08923
2.26                   0.9807911        83.45645
2.264                  0.9820656        82.81444
2.268                  0.9850584        82.11743
2.272                  0.9892597         81.3289
2.276                  0.9939495        80.42773
2.28                   0.9983172        79.41134
2.284                   1.001592        78.29553
2.288                   1.003166        77.11159
2.292                   1.002683         75.9014
2.296                   1.000103        74.71165
2.3                    0.9957123        73.58743
2.304                  0.9900974        72.56547
2.308                  0.9840656        71.66801
2.312                  0.9785311        70.89762
2.316                  0.9743694        70.23468
2.32                   0.9722638        69.63858
2.324                  0.9725744        69.05347
2.328                  0.9752566        68.41774
2.332                  0.9798526        67.67519
2.336                  0.9855574        66.78519
2.34                   0.9913448        65.72928
2.344                   0.996128        64.51341
2.348                  0.9989241        63.16644
2.352                   0.999001        61.73561