! TOUCHSTONE file generated by CST MICROWAVE STUDIO
! Date and time: Tue Jun  7 21:31:13 2022
! Project name: AppElm_antenne_patch_FR4.cst
! Parameters = {L=45; W=58.5; e=0.035; h=1.6; lambda=0.190476; ls=120; w0=1.2; w1=0.533; ws=120; y0=20; y1=23.81}
! Header version: 2018
! Port assignment regex: !\s*Touchstone port\s*([0-9]+)\s*=\s*(CST MWS port|CST DS port)\s*([0-9]+|Zmin|Zmax)\s*\(\"(.*)\"\)(\s*mode\s*([0-9]+))?.*
! Touchstone port assignment:
! Touchstone port 1 = CST MWS port 1 ("")
# GHz S MA R 50
0                      0.9896831              -0
0.004                  0.9902892       -9.911918
0.008                  0.9920253       -19.74044
0.012                  0.9946575       -29.40609
0.016                  0.9978352       -38.83664
0.02                    1.001142       -47.96944
0.024                   1.004154       -56.75249
0.028                   1.006499       -65.14479
0.032                   1.007902       -73.11586
0.036                   1.008218       -80.64523
0.04                    1.007452       -87.72182
0.044                   1.005747       -94.34388
0.048                    1.00337       -100.5187
0.052                    1.00067       -106.2628
0.056                  0.9980263       -111.6014
0.06                   0.9958019       -116.5677
0.064                  0.9942865       -121.2013
0.068                  0.9936581       -125.5454
0.072                  0.9939608       -129.6439
0.076                   0.995101       -133.5378
0.08                   0.9968683       -137.2624
0.084                  0.9989712       -140.8451
0.088                   1.001083       -144.3044
0.092                   1.002895       -147.6501
0.096                   1.004156       -150.8845
0.1                     1.004707       -154.0046
0.104                   1.004506       -157.0043
0.108                   1.003619       -159.8772
0.112                   1.002217       -162.6187
0.116                   1.000538       -165.2283
0.12                   0.9988542       -167.7106
0.124                  0.9974297       -170.0755
0.128                  0.9964775       -172.3381
0.132                   0.996129       -174.5167
0.136                  0.9964155       -176.6306
0.14                   0.9972666       -178.6984
0.144                  0.9985248         179.265
0.148                  0.9999742        177.2496
0.152                   1.001377        175.2512
0.156                   1.002511        173.2712
0.16                    1.003206        171.3157
0.164                   1.003367        169.3937
0.168                   1.002985        167.5157
0.172                    1.00214        165.6912
0.176                   1.000983        163.9269
0.18                   0.9997095        162.2258
0.184                  0.9985313        160.5861
0.188                  0.9976374        159.0015
0.192                  0.9971668        157.4618
0.196                  0.9971846        155.9546
0.2                    0.9976745        154.4671
0.204                  0.9985425        152.9882
0.208                  0.9996341        151.5099
0.212                   1.000763        150.0286
0.216                   1.001741        148.5449
0.22                    1.002409        147.0639
0.224                   1.002664        145.5936
0.228                   1.002471        144.1436
0.232                   1.001873        142.7231
0.236                   1.000975        141.3399
0.24                   0.9999321        139.9984
0.244                  0.9989215        138.6993
0.248                  0.9981108        137.4391
0.252                  0.9976326        136.2106
0.256                  0.9975612        135.0044
0.26                   0.9979008          133.81
0.264                  0.9985865        132.6179
0.268                  0.9994963         131.421
0.272                   1.000472        130.2155
0.276                   1.001348        129.0018
0.28                    1.001976        127.7838
0.284                   1.002256        126.5686
0.288                   1.002143        125.3648
0.292                   1.001662        124.1812
0.296                     1.0009        123.0252
0.3                    0.9999878        121.9016
0.304                  0.9990839         120.812
0.308                  0.9983421        119.7538
0.312                  0.9978876        118.7213
0.316                  0.9977959        117.7063
0.32                   0.9980786        116.6996
0.324                  0.9986838        115.6924
0.328                  0.9995044         114.678
0.332                   1.000397         113.653
0.336                   1.001209        112.6173
0.34                    1.001801        111.5745
0.344                   1.002073        110.5311
0.348                   1.001983        109.4951
0.352                   1.001549         108.475
0.356                   1.000847        107.4779
0.36                           1        106.5087
0.364                  0.9991563        105.5689
0.368                  0.9984614        104.6565
0.372                  0.9980353        103.7662
0.376                  0.9979508        102.8903
0.38                    0.998221        102.0203
0.384                   0.998797        101.1477
0.388                  0.9995769        100.2663
0.392                   1.000424        99.37281
0.396                   1.001191        98.46721
0.4                     1.001744        97.55306
0.404                   1.001989        96.63667
0.408                   1.001884         95.7259
0.412                   1.001448        94.82894
0.416                   1.000757        93.95281
0.42                   0.9999326        93.10213
0.424                  0.9991183        92.27835
0.428                  0.9984564         91.4794
0.432                  0.9980628        90.69998
0.436                   0.998006        89.93256
0.44                   0.9982954        89.16862
0.444                  0.9988793        88.40017
0.448                  0.9996544        87.62115
0.452                   1.000484        86.82849
0.456                   1.001223        86.02259
0.46                     1.00174        85.20725
0.464                   1.001946        84.38888
0.468                   1.001803        83.57546
0.472                   1.001338        82.77513
0.476                    1.00063        81.99474
0.48                   0.9998043        81.23865
0.484                  0.9990057        80.50797
0.488                  0.9983755        79.80027
0.492                  0.9980254        79.10996
0.496                  0.9980181         78.4293
0.5                    0.9983552        77.74968
0.504                  0.9989777        77.06326
0.508                  0.9997757        76.36423
0.512                   1.000608        75.65001
0.516                   1.001327        74.92145
0.52                    1.001807        74.18288
0.524                    1.00196        73.44113
0.528                    1.00176        72.70448
0.532                   1.001241        71.98109
0.536                   1.000492         71.2777
0.54                   0.9996465        70.59829
0.544                  0.9988532        69.94347
0.548                  0.9982536        69.31021
0.552                  0.9979554        68.69234
0.556                   0.998013        68.08168
0.56                   0.9984172        67.46944
0.564                  0.9990973        66.84779
0.568                  0.9999325        66.21136
0.572                   1.000774        65.55805
0.576                   1.001473         64.8895
0.58                    1.001902        64.21071
0.584                   1.001985        63.52917
0.588                   1.001704        62.85355
0.592                   1.001106         62.1922
0.596                   1.000296        61.55161
0.6                    0.9994165        60.93532
0.604                  0.9986232        60.34321
0.608                  0.9980587        59.77141
0.612                  0.9978252        59.21294
0.616                  0.9979661        58.65905
0.62                   0.9984582        58.10062
0.624                  0.9992146         57.5299
0.628                   1.000101        56.94195
0.632                   1.000958        56.33543
0.636                   1.001633        55.71292
0.64                    1.002003        55.08031
0.644                      1.002        54.44591
0.648                    1.00162        53.81891
0.652                   1.000929        53.20778
0.656                   1.000048        52.61876
0.66                   0.9991316        52.05473
0.664                  0.9983453        51.51463
0.668                  0.9978314        50.99353
0.672                  0.9976846        50.48349
0.676                  0.9979341        49.97497
0.68                   0.9985383        49.45853
0.684                  0.9993906        48.92659
0.688                    1.00034        48.37477
0.692                   1.001215        47.80271
0.696                    1.00186        47.21408
0.7                     1.002155        46.61597
0.704                   1.002046        46.01761
0.708                   1.001548        45.42875
0.712                   1.000747        44.85796
0.716                  0.9997824        44.31111
0.72                   0.9988279        43.79023
0.724                  0.9980553        43.29307
0.728                  0.9976061        42.81342
0.732                  0.9975644        42.34219
0.736                   0.997942          41.869
0.74                   0.9986742         41.3841
0.744                  0.9996314        40.88017
0.748                   1.000642        40.35363
0.752                   1.001525        39.80531
0.756                   1.002119        39.24027
0.76                    1.002313        38.66693
0.764                   1.002068        38.09555
0.768                   1.001423        37.53648
0.772                   1.000489        36.99833
0.776                  0.9994299        36.48637
0.78                   0.9984349        36.00155
0.784                  0.9976845        35.54017
0.788                   0.997317        35.09451
0.792                  0.9974024        34.65413
0.796                  0.9979297        34.20778
0.8                    0.9988072        33.74544
0.804                  0.9998783        33.26025
0.808                    1.00095        32.74966
0.812                   1.001828        32.21594
0.816                    1.00235        31.66582
0.82                    1.002418        31.10918
0.824                   1.002013        30.55745
0.828                     1.0012        30.02154
0.832                   1.000121        29.50992
0.836                  0.9989663        29.02705
0.84                   0.9979436        28.57249
0.844                  0.9972398        28.14079
0.848                  0.9969865        27.72246
0.852                  0.9972353        27.30556
0.856                  0.9979464        26.87795
0.86                   0.9989954        26.42951
0.864                   1.000195        25.95399
0.868                    1.00133         25.4502
0.872                   1.002193        24.92223
0.876                   1.002623        24.37864
0.88                    1.002538        23.83106
0.884                   1.001946         23.2921
0.888                   1.000944        22.77317
0.892                  0.9997099        22.28245
0.896                   0.998462        21.82326
0.9                    0.9974272        21.39343
0.904                  0.9967969        20.98545
0.908                  0.9966921        20.58777
0.912                   0.997139        20.18686
0.916                  0.9980634        19.76969
0.92                   0.9993028        19.32621
0.924                   1.000636        18.85114
0.928                   1.001821        18.34502
0.932                    1.00264        17.81405
0.936                   1.002941        17.26902
0.94                     1.00266        16.72341
0.944                   1.001837        16.19111
0.948                   1.000614        15.68392
0.952                  0.9992024        15.20944
0.956                  0.9978566        14.76956
0.96                   0.9968214        14.35993
0.964                  0.9962904        13.97059
0.968                  0.9963679        13.58765
0.972                  0.9970481        13.19584
0.976                  0.9982148        12.78133
0.98                   0.9996613        12.33435
0.984                   1.001127        11.85098
0.988                   1.002345        11.33388
0.992                   1.003089         10.7918
0.996                   1.003217        10.23806
1                       1.002692        9.688218
1.004                   1.001597        9.157449
1.008                   1.000119        8.657801
1.012                  0.9985184        8.195991
1.016                  0.9970823        7.771985
1.02                   0.9960755        7.378781
1.024                   0.995689        7.003463
1.028                  0.9960037        6.629468
1.032                  0.9969734        6.239641
1.036                  0.9984302        5.819453
1.04                    1.000115        5.359733
1.044                   1.001725        4.858361
1.048                   1.002965        4.320648
1.052                   1.003602        3.758386
1.056                    1.00351        3.187817
1.06                    1.002691        2.626844
1.064                   1.001277        2.091949
1.068                  0.9995122        1.595254
1.072                  0.9977083        1.142197
1.076                  0.9961933       0.7302781
1.08                   0.9952495       0.3492061
1.084                  0.9950611       -0.017453
1.088                  0.9956764      -0.3893411
1.092                  0.9969973      -0.7856411
1.096                  0.9987939       -1.221445
1.1                     1.000745        -1.70492
1.104                   1.002499       -2.235809
1.108                    1.00373       -2.805492
1.112                   1.004205       -3.398501
1.116                   1.003821       -3.995159
1.12                    1.002625       -4.574905
1.124                   1.000815       -5.119819
1.128                  0.9987012       -5.617977
1.132                  0.9966602        -6.06567
1.136                  0.9950642       -6.468581
1.14                   0.9942138       -6.841106
1.144                  0.9942801       -7.203971
1.148                  0.9952684       -7.580461
1.152                  0.9970144       -7.992017
1.156                  0.9992113       -8.454151
1.16                    1.001464       -8.973545
1.164                   1.003362       -9.546847
1.168                    1.00455       -10.16129
1.172                   1.004795       -10.79691
1.176                   1.004025       -11.42987
1.18                    1.002351        -12.0365
1.184                    1.00005       -12.59737
1.188                   0.997517       -13.10085
1.192                  0.9952058       -13.54568
1.196                   0.993542        -13.9417
1.2                    0.9928455       -14.30858
1.204                  0.9932667       -14.67247
1.208                  0.9947529       -15.06115
1.212                  0.9970538       -15.49871
1.216                  0.9997645       -16.00095
1.22                    1.002397       -16.57245
1.224                    1.00447       -17.20578
1.228                   1.005591       -17.88288
1.232                   1.005529       -18.57805
1.236                    1.00426       -19.26227
1.24                    1.001972       -19.90794
1.244                  0.9990458       -20.49371
1.248                  0.9959885       -21.00855
1.252                   0.993351       -21.45444
1.256                  0.9916279       -21.84675
1.26                   0.9911614       -22.21217
1.264                  0.9920721       -22.58401
1.268                  0.9942283       -22.99589
1.272                  0.9972645       -23.47525
1.276                   1.000645       -24.03809
1.28                     1.00376       -24.68602
1.284                   1.006033       -25.40616
1.288                   1.007023       -26.17335
1.292                   1.006506        -26.9543
1.296                   1.004516       -27.71296
1.3                      1.00135       -28.41634
1.304                  0.9975289       -29.04033
1.308                  0.9937129       -29.57452
1.312                  0.9905915       -30.02524
1.316                  0.9887561        -30.4156
1.32                   0.9885838       -30.78219
1.324                  0.9901552       -31.16857
1.328                  0.9932285       -31.61676
1.332                   0.997276       -32.15905
1.336                   1.001576       -32.81182
1.34                    1.005344       -33.57267
1.344                   1.007865       -34.42107
1.348                   1.008624       -35.32191
1.352                   1.007397       -36.23101
1.356                   1.004299       -37.10189
1.36                   0.9997807       -37.89323
1.364                  0.9945685       -38.57609
1.368                  0.9895559       -39.14027
1.372                  0.9856501       -39.59811
1.376                  0.9836039       -39.98445
1.38                   0.9838614       -40.35154
1.384                  0.9864527       -40.75954
1.388                  0.9909726       -41.26451
1.392                  0.9966416       -41.90723
1.396                   1.002443       -42.70554
1.4                     1.007303       -43.65153
1.404                   1.010271       -44.71343
1.408                   1.010691       -45.84082
1.412                    1.00831       -46.97211
1.416                   1.003346       -48.04329
1.42                   0.9964809        -48.9976
1.424                  0.9887787       -49.79567
1.428                  0.9815381       -50.42493
1.432                  0.9760743       -50.90613
1.436                  0.9734687       -51.29413
1.44                   0.9743343       -51.67044
1.444                  0.9786576       -52.12809
1.448                   0.985763       -52.75247
1.452                  0.9944164       -53.60393
1.456                   1.003038       -54.70695
1.46                     1.00997       -56.04735
1.464                   1.013749       -57.57623
1.468                    1.01334       -59.21771
1.472                   1.008312        -60.8786
1.476                  0.9989478       -62.45941
1.48                   0.9862701       -63.86706
1.484                  0.9719695       -65.03057
1.488                  0.9582162       -65.91958
1.492                  0.9473339       -66.56223
1.496                  0.9413567       -67.05542
1.5                    0.9415479       -67.55841
1.504                  0.9480115       -68.26559
1.508                  0.9595388       -69.36612
1.512                  0.9737401       -71.00629
1.516                  0.9873984        -73.2691
1.52                   0.9969143       -76.17365
1.524                  0.9987222       -79.68747
1.528                  0.9896165       -83.74231
1.532                  0.9669767       -88.24685
1.536                   0.928909       -93.09315
1.54                   0.8743273       -98.15567
1.544                  0.8029948       -103.2802
1.548                  0.7155498       -108.2562
1.552                  0.6135515       -112.7521
1.556                   0.499645       -116.1503
1.56                   0.3781916       -117.0621
1.564                  0.2579883       -111.6114
1.568                  0.1659783       -87.98447
1.572                  0.1725907       -44.54076
1.576                  0.2703065       -23.76237
1.58                   0.3914074       -19.38233
1.584                  0.5123805       -20.72624
1.588                  0.6251846       -24.35603
1.592                  0.7256781        -29.0105
1.596                  0.8113158       -34.11645
1.6                    0.8806074       -39.35957
1.604                  0.9329781       -44.53631
1.608                  0.9687317       -49.49462
1.612                  0.9890307       -54.10841
1.616                  0.9958582       -58.26764
1.62                   0.9919396       -61.87816
1.624                  0.9806016       -64.86923
1.628                  0.9655399       -67.20791
1.632                  0.9504777       -68.91686
1.636                  0.9387221       -70.08817
1.64                   0.9326871       -70.88234
1.644                   0.933518       -71.50479
1.648                  0.9409614        -72.1635
1.652                  0.9535487       -73.02484
1.656                  0.9690261       -74.18548
1.66                   0.9848717       -75.66785
1.664                  0.9987596        -77.4331
1.668                    1.00889       -79.40096
1.672                   1.014183       -81.46918
1.676                   1.014342       -83.52941
1.68                    1.009834       -85.47976
1.684                   1.001781       -87.23584
1.688                  0.9917858       -88.74108
1.692                  0.9816892       -89.97584
1.696                  0.9732829       -90.96316
1.7                    0.9680101       -91.76759
1.704                  0.9667128       -92.48465
1.708                  0.9694944       -93.22181
1.712                  0.9757325       -94.07606
1.716                  0.9842397       -95.11542
1.72                   0.9935206       -96.36933
1.724                   1.002052       -97.82845
1.728                   1.008535       -99.45174
1.732                   1.012071       -101.1766
1.736                   1.012271       -102.9299
1.74                     1.00928       -104.6382
1.744                   1.003733       -106.2374
1.748                  0.9966537       -107.6814
1.752                   0.989286       -108.9493
1.756                  0.9828996       -110.0498
1.76                   0.9785738       -111.0211
1.764                  0.9770117       -111.9249
1.768                  0.9784172       -112.8346
1.772                  0.9824732        -113.821
1.776                   0.988419       -114.9386
1.78                   0.9952089       -116.2166
1.784                   1.001707       -117.6562
1.788                    1.00688       -119.2334
1.792                   1.009954       -120.9049
1.796                   1.010519       -122.6161
1.8                     1.008574       -124.3092
1.804                   1.004513       -125.9316
1.808                  0.9990621       -127.4428
1.812                  0.9931588        -128.821
1.816                   0.987805        -130.067
1.82                   0.9839003        -131.205
1.824                  0.9820856        -132.279
1.828                  0.9826345       -133.3447
1.832                  0.9854087       -134.4594
1.836                   0.989894       -135.6704
1.84                   0.9953048       -137.0076
1.844                    1.00073       -138.4788
1.848                   1.005289       -140.0703
1.852                   1.008273       -141.7512
1.856                   1.009243       -143.4783
1.86                    1.008095       -145.2036
1.864                   1.005059        -146.881
1.868                   1.000664       -148.4728
1.872                  0.9956539       -149.9554
1.876                  0.9908664       -151.3235
1.88                   0.9870994       -152.5913
1.884                  0.9849737       -153.7911
1.888                  0.9848265       -154.9677
1.892                  0.9866534       -156.1696
1.896                  0.9901161       -157.4406
1.9                    0.9946086       -158.8116
1.904                  0.9993705       -160.2958
1.908                   1.003618       -161.8878
1.912                   1.006673       -163.5653
1.916                   1.008065       -165.2937
1.92                    1.007597       -167.0316
1.924                   1.005371       -168.7371
1.928                    1.00177       -170.3735
1.932                   0.997393       -171.9153
1.936                  0.9929676       -173.3517
1.94                   0.9892273       -174.6895
1.944                   0.986791       -175.9522
1.948                   0.986056       -177.1762
1.952                  0.9871286       -178.4047
1.956                   0.989808       -179.6789
1.96                   0.9936259        178.9685
1.964                  0.9979334        177.5196
1.968                   1.002015        175.9733
1.972                   1.005206        174.3445
1.976                   1.007001        172.6614
1.98                    1.007123        170.9602
1.984                   1.005568        169.2799
1.988                     1.0026        167.6568
1.992                  0.9987104        166.1187
1.996                  0.9945421        164.6806
2                      0.9907862         163.342
2.004                  0.9880679        162.0862
2.008                  0.9868389        160.8827
2.012                  0.9872978        159.6929
2.016                  0.9893553        158.4765
2.02                   0.9926525        157.1994
2.024                  0.9966262        155.8395
2.028                    1.00061        154.3899
2.032                   1.003945        152.8597
2.036                   1.006089        151.2718
2.04                    1.006699        149.6584
2.044                   1.005681        148.0567
2.048                   1.003205        146.5027
2.052                  0.9996772        145.0262
2.056                  0.9956796        143.6461
2.06                    0.991875        142.3668
2.064                  0.9889006        141.1768
2.068                  0.9872573        140.0503
2.072                  0.9872209        138.9516
2.076                  0.9887921         137.841
2.08                   0.9916974        136.6825
2.084                  0.9954371        135.4504
2.088                  0.9993769        134.1331
2.092                   1.002856        132.7349
2.096                   1.005295        131.2744
2.1                     1.006291        129.7812
2.104                   1.005676        128.2912
2.108                   1.003546         126.841
2.112                   1.000245        125.4624
2.116                  0.9963124        124.1775
2.12                   0.9924004        122.9949
2.124                  0.9891664        121.9071
2.128                    0.98716        120.8917
2.132                  0.9867246        119.9144
2.136                  0.9879349        118.9354
2.14                   0.9905806        117.9166
2.144                  0.9942048        116.8285
2.148                  0.9981861        115.6556
2.152                   1.001846        114.3982
2.156                   1.004563         113.072
2.16                    1.005874         111.705
2.164                   1.005546         110.333
2.168                   1.003617        108.9938
2.172                   1.000386        107.7219
2.176                   0.996375         106.543
2.18                   0.9922449        105.4691
2.184                  0.9886902        104.4961
2.188                  0.9863194        103.6036
2.192                  0.9855457        102.7576
2.196                  0.9865086        101.9166
2.2                     0.989046        101.0393
2.204                  0.9927205         100.092
2.208                  0.9968977        99.05499
2.212                   1.000857         97.9252
2.216                   1.003915        96.71634
2.22                    1.005534        95.45618
2.224                   1.005415        94.18182
2.228                   1.003539        92.93416
2.232                   1.000179        91.75163
2.236                  0.9958617        90.66432
2.24                   0.9912889        89.68856
2.244                  0.9872259        88.82334
2.248                   0.984371        88.04921
2.252                  0.9832302        87.33075
2.256                  0.9840184        86.62248
2.26                   0.9866142        85.87715
2.264                  0.9905762        85.05472
2.268                   0.995219        84.12964
2.272                  0.9997332          83.095
2.276                   1.003322         81.9631
2.28                    1.005332        80.76294
2.284                   1.005359        79.53547
2.288                   1.003316        78.32746
2.292                  0.9994539        77.18471
2.296                  0.9943346        76.14512
2.3                     0.988754        75.23197
2.304                  0.9836212        74.44889
2.308                  0.9798087        73.77704
2.312                  0.9779935        73.17671
2.316                  0.9785236        72.59325
2.32                   0.9813389        71.96695
2.324                  0.9859673        71.24427
2.328                  0.9915997        70.38798
2.332                  0.9972261        69.38339
2.336                   1.001801        68.24027
2.34                    1.004411        66.99053
2.344                   1.004423        65.68332
2.348                   1.001584        64.37826
2.352                  0.9960815        63.13761