! TOUCHSTONE file generated by CST MICROWAVE STUDIO
! Date and time: Tue Jun  7 21:31:16 2022
! Project name: AppElm_antenne_patch_FR4.cst
! Parameters = {L=45; W=58.5; e=0.035; h=1.6; lambda=0.190476; ls=120; w0=1.44; w1=0.533; ws=120; y0=20; y1=23.81}
! Header version: 2018
! Port assignment regex: !\s*Touchstone port\s*([0-9]+)\s*=\s*(CST MWS port|CST DS port)\s*([0-9]+|Zmin|Zmax)\s*\(\"(.*)\"\)(\s*mode\s*([0-9]+))?.*
! Touchstone port assignment:
! Touchstone port 1 = CST MWS port 1 ("")
# GHz S MA R 50
0                      0.9894152              -0
0.004                  0.9900437        -9.92236
0.008                  0.9918434       -19.75904
0.012                  0.9945693       -29.42849
0.016                  0.9978551       -38.85676
0.02                    1.001267       -47.97984
0.024                   1.004364       -56.74489
0.028                   1.006761        -65.1104
0.032                   1.008175       -73.04571
0.036                   1.008462       -80.53042
0.04                    1.007631       -87.55383
0.044                   1.005839       -94.11469
0.048                   1.003367       -100.2212
0.052                   1.000581       -105.8908
0.056                  0.9978766       -111.1501
0.06                   0.9956261       -116.0339
0.064                  0.9941238       -120.5834
0.068                   0.993546       -124.8433
0.072                  0.9939259       -128.8586
0.076                  0.9951565       -132.6715
0.08                     0.99701       -136.3174
0.084                  0.9991789       -139.8238
0.088                   1.001325       -143.2088
0.092                   1.003131       -146.4812
0.096                   1.004347       -149.6427
0.1                     1.004821       -152.6895
0.104                   1.004523       -155.6149
0.108                   1.003536       -158.4122
0.112                   1.002045       -161.0771
0.116                   1.000306       -163.6095
0.12                   0.9986002       -166.0147
0.124                  0.9971955       -168.3038
0.128                  0.9963022       -170.4928
0.132                  0.9960412       -172.6007
0.136                  0.9964288       -174.6477
0.14                   0.9973768       -176.6523
0.144                  0.9987109       -178.6291
0.148                   1.000202        179.4126
0.152                   1.001605        177.4695
0.156                   1.002698         175.544
0.16                    1.003317        173.6431
0.164                    1.00338        171.7765
0.168                   1.002895        169.9549
0.172                   1.001959        168.1878
0.176                   1.000738        166.4816
0.18                   0.9994411        164.8384
0.184                  0.9982818        163.2554
0.188                  0.9974476        161.7253
0.192                   0.997067        160.2369
0.196                  0.9971904        158.7775
0.2                    0.9977827         157.334
0.204                  0.9987327        155.8956
0.208                  0.9998727         154.455
0.212                   1.001008        153.0094
0.216                   1.001949        151.5608
0.22                    1.002544        150.1149
0.224                   1.002703        148.6806
0.228                   1.002408        147.2676
0.232                   1.001718        145.8855
0.236                   1.000755        144.5413
0.24                   0.9996861        143.2389
0.244                  0.9986926        141.9777
0.248                  0.9979396        140.7534
0.252                  0.9975502         139.558
0.256                  0.9975829        138.3812
0.26                   0.9980246        137.2127
0.264                  0.9987927        136.0431
0.268                  0.9997508        134.8659
0.272                   1.000733        133.6786
0.276                   1.001572        132.4822
0.28                    1.002128        131.2819
0.284                    1.00231        130.0853
0.288                   1.002093        128.9015
0.292                   1.001519        127.7392
0.296                   1.000689        126.6054
0.3                    0.9997487        125.5043
0.304                  0.9988587        124.4362
0.308                  0.9981709        123.3978
0.312                  0.9978013        122.3823
0.316                  0.9978098        121.3811
0.32                   0.9981906        120.3847
0.324                  0.9988742        119.3847
0.328                  0.9997395        118.3751
0.332                   1.000636        117.3534
0.336                   1.001409        116.3205
0.34                    1.001927        115.2811
0.344                   1.002103        114.2422
0.348                    1.00191        113.2123
0.352                   1.001384        112.1997
0.356                   1.000618        111.2112
0.36                   0.9997449        110.2509
0.364                  0.9989174        109.3193
0.368                  0.9982785        108.4135
0.372                  0.9979379        107.5272
0.376                  0.9979538        106.6523
0.38                   0.9983211        105.7801
0.384                  0.9989743        104.9025
0.388                  0.9997979        104.0139
0.392                   1.000648        103.1119
0.396                   1.001377        102.1976
0.4                     1.001859        101.2755
0.404                   1.002011        100.3525
0.408                   1.001808        99.43681
0.412                   1.001286        98.53657
0.416                   1.000538        97.65827
0.42                   0.9996942        96.80581
0.424                  0.9989019        95.97963
0.428                     0.9983        95.17667
0.432                   0.997994        94.39093
0.436                   0.998037        93.61431
0.44                   0.9984209        92.83824
0.444                  0.9990779        92.05505
0.448                   0.999892        91.25942
0.452                    1.00072        90.44923
0.456                   1.001417        89.62583
0.46                     1.00186        88.79394
0.464                   1.001973        87.96058
0.468                   1.001735        87.13402
0.472                   1.001187        86.32224
0.476                   1.000426        85.53157
0.48                   0.9995844        84.76561
0.484                  0.9988102        84.02449
0.488                  0.9982402        83.30486
0.492                  0.9979752        82.60038
0.496                  0.9980623        81.90288
0.5                    0.9984867        81.20375
0.504                  0.9991732        80.49551
0.508                   1.000001        79.77314
0.512                   1.000822        79.03491
0.516                   1.001494        78.28273
0.52                    1.001895        77.52167
0.524                   1.001954        76.75918
0.528                   1.001661        76.00368
0.532                   1.001064         75.2632
0.536                   1.000268        74.54385
0.54                   0.9994124        73.84886
0.544                  0.9986485        73.17786
0.548                  0.9981121        72.52695
0.552                  0.9978992        71.88925
0.556                  0.9980492        71.25623
0.56                   0.9985359        70.61916
0.564                  0.9992741        69.97068
0.568                   1.000133        69.30613
0.572                    1.00096        68.62434
0.576                   1.001607        67.92788
0.58                     1.00196        67.22251
0.584                   1.001953        66.51619
0.588                   1.001586         65.8177
0.592                   1.000921        65.13512
0.596                   1.000074         64.4744
0.6                    0.9991949        63.83818
0.604                  0.9984395        63.22546
0.608                  0.9979437        62.63149
0.612                  0.9977974        62.04876
0.616                  0.9980288        61.46818
0.62                   0.9985987        60.88079
0.624                  0.9994069        60.27934
0.628                    1.00031        59.65966
0.632                   1.001147        59.02131
0.636                   1.001768         58.3677
0.64                     1.00206        57.70547
0.644                    1.00197        57.04329
0.648                    1.00151        56.39038
0.652                   1.000759        55.75488
0.656                  0.9998479        55.14243
0.66                   0.9989386        54.55508
0.664                  0.9981938        53.99087
0.668                  0.9977482        53.44411
0.672                  0.9976843        52.90635
0.676                  0.9980166        52.36786
0.68                   0.9986881        51.81942
0.684                  0.9995805        51.25398
0.688                   1.000535        50.66795
0.692                   1.001381        50.06183
0.696                   1.001966        49.44009
0.7                     1.002182        48.81041
0.704                   1.001988        48.18232
0.708                   1.001413        47.56552
0.712                   1.000558        46.96823
0.716                   0.999571        46.39564
0.72                   0.9986284        45.84897
0.724                  0.9978997        45.32516
0.728                   0.997518        44.81731
0.732                  0.9975554        44.31589
0.736                  0.9980088        43.81043
0.74                   0.9987998        43.29145
0.744                  0.9997886         42.7522
0.748                   1.000799        42.18986
0.752                   1.001648        41.60606
0.756                   1.002182        41.00659
0.76                    1.002301        40.40034
0.764                    1.00198        39.79781
0.768                    1.00127        39.20923
0.772                   1.000293        38.64277
0.776                  0.9992213        38.10308
0.78                   0.9982468        37.59029
0.784                  0.9975454        37.09999
0.788                  0.9972469        36.62384
0.792                   0.997409        36.15107
0.796                  0.9980072        35.67041
0.8                    0.9989373        35.17217
0.804                   1.000034        34.65005
0.808                   1.001101        34.10222
0.812                   1.001945        33.53173
0.816                    1.00241        32.94586
0.82                    1.002409        32.35496
0.824                   1.001935        31.77056
0.828                   1.001066        31.20341
0.832                  0.9999529        30.66155
0.836                   0.998792        30.14883
0.84                    0.997792        29.66409
0.844                  0.9971353        29.20123
0.848                  0.9969449        28.75024
0.852                  0.9972608        28.29896
0.856                  0.9980313        27.83529
0.86                   0.9991215        27.34943
0.864                   1.000337        26.83572
0.868                    1.00146        26.29361
0.872                   1.002285        25.72782
0.876                    1.00266        25.14745
0.88                     1.00251        24.56444
0.884                   1.001853        23.99145
0.888                   1.000802        23.43974
0.892                  0.9995371        22.91704
0.896                  0.9982841        22.42614
0.9                    0.9972692        21.96425
0.904                  0.9966796        21.52329
0.908                  0.9966281        21.09131
0.912                  0.9971312         20.6546
0.916                  0.9981045         20.2002
0.92                    0.999377        19.71839
0.924                   1.000721        19.20436
0.928                   1.001895        18.65921
0.932                   1.002683        18.08964
0.936                   1.002937        17.50687
0.94                    1.002602        16.92462
0.944                    1.00173        16.35682
0.948                   1.000466        15.81509
0.952                  0.9990328        15.30669
0.956                  0.9976855        14.83305
0.96                   0.9966695        14.38932
0.964                  0.9961743        13.96509
0.968                  0.9962982        13.54615
0.972                  0.9970275        13.11708
0.976                   0.998238        12.66413
0.98                    0.999716        12.17775
0.984                   1.001197         11.6544
0.988                   1.002412        11.09714
0.992                   1.003137        10.51513
0.996                   1.003233        9.921985
1                       1.002669        9.333496
1.004                   1.001536        8.764869
1.008                   1.000026        8.228072
1.012                  0.9984035        7.729602
1.016                  0.9969597        7.269131
1.02                   0.9959598        6.839309
1.024                   0.995593        6.426897
1.028                  0.9959366         6.01508
1.032                  0.9969393        5.586554
1.036                  0.9984284        5.126769
1.04                     1.00014        4.626649
1.044                   1.001766        4.084261
1.048                    1.00301        3.505156
1.052                    1.00364        2.901384
1.056                   1.003529        2.289428
1.06                    1.002682        1.687395
1.064                   1.001235         1.11191
1.068                  0.9994338       0.5751633
1.072                  0.9975969      0.08258631
1.076                  0.9960551      -0.3684067
1.08                    0.995094      -0.7882661
1.084                  0.9948993       -1.193642
1.088                  0.9955205       -1.604422
1.092                  0.9968581       -2.040037
1.096                  0.9986801       -2.515795
1.1                     1.000663       -3.040015
1.104                   1.002447       -3.612519
1.108                   1.003707        -4.22468
1.112                   1.004201       -4.860899
1.116                   1.003824       -5.501326
1.12                    1.002622       -6.125085
1.124                    1.00079       -6.714012
1.128                  0.9986416       -7.255781
1.132                  0.9965567       -7.746413
1.136                  0.9949137       -8.191384
1.14                   0.9940209       -8.605039
1.144                  0.9940566       -9.008237
1.148                  0.9950329        -9.42458
1.152                  0.9967893       -9.875976
1.156                  0.9990199       -10.37847
1.16                    1.001327       -10.93929
1.164                   1.003292       -11.55548
1.168                   1.004551       -12.21455
1.172                   1.004859       -12.89654
1.176                   1.004135       -13.57741
1.18                     1.00248       -14.23303
1.184                   1.000163        -14.8433
1.188                  0.9975837       -15.39584
1.192                  0.9951979       -15.88861
1.196                  0.9934429       -16.33084
1.2                    0.9926538       -16.74187
1.204                  0.9929971       -17.14794
1.208                  0.9944356       -17.57731
1.212                  0.9967296       -18.05494
1.216                  0.9994782        -18.5977
1.22                     1.00219       -19.21123
1.224                   1.004371       -19.88903
1.228                   1.005611       -20.61358
1.232                    1.00566       -21.35936
1.236                    1.00447         -22.097
1.24                    1.002214       -22.79809
1.244                  0.9992589       -23.44007
1.248                  0.9961112       -24.01046
1.252                  0.9933314       -24.50974
1.256                  0.9914334       -24.95211
1.26                   0.9907877        -25.3636
1.264                  0.9915456       -25.77763
1.268                  0.9936035       -26.22878
1.272                   0.996616       -26.74603
1.276                   1.000055       -27.34732
1.28                    1.003303       -28.03622
1.284                   1.005763       -28.80144
1.288                   1.006965       -29.61881
1.292                   1.006645       -30.45533
1.296                     1.0048       -31.27436
1.3                     1.001699       -32.04151
1.304                  0.9978393       -32.73059
1.308                  0.9938808       -33.32865
1.312                  0.9905292       -33.83944
1.316                  0.9884113         -34.284
1.32                   0.9879524       -34.69788
1.324                  0.9892866       -35.12494
1.328                  0.9922198       -35.60892
1.332                   0.996257       -36.18495
1.336                   1.000688       -36.87272
1.34                    1.004712       -37.67311
1.344                    1.00758       -38.56824
1.348                   1.008721       -39.52462
1.352                   1.007849       -40.49844
1.356                   1.005015       -41.44226
1.36                    1.000614       -42.31237
1.364                  0.9953422       -43.07626
1.368                  0.9900866       -43.71932
1.372                  0.9857839       -44.24938
1.376                  0.9832483       -44.69757
1.38                   0.9830082        -45.1143
1.384                  0.9851879       -45.56037
1.388                  0.9894645       -46.09497
1.392                  0.9951133       -46.76394
1.396                   1.001135        -47.5909
1.4                     1.006428       -48.57357
1.404                   1.009979       -49.68457
1.408                   1.011037       -50.87621
1.412                    1.00924        -52.0876
1.416                   1.004693       -53.25317
1.42                   0.9979811       -54.31222
1.424                  0.9901069       -55.21911
1.428                  0.9823553       -55.95321
1.432                  0.9760902       -56.52657
1.436                  0.9725042       -56.98666
1.44                   0.9723697       -57.41108
1.444                   0.975851       -57.89394
1.448                  0.9824321       -58.52683
1.452                  0.9909868       -59.37987
1.456                  0.9999699       -60.48868
1.46                    1.007681       -61.84945
1.464                   1.012544       -63.42147
1.468                   1.013354       -65.13426
1.472                    1.00948       -66.89687
1.476                   1.000985       -68.60844
1.48                   0.9886898       -70.17023
1.484                  0.9741261       -71.50055
1.488                  0.9593917       -72.55272
1.492                  0.9468627       -73.33449
1.496                  0.9387768       -73.92245
1.5                    0.9367392       -74.46207
1.504                  0.9412779       -75.14656
1.508                  0.9515964       -76.17781
1.512                  0.9656193       -77.72463
1.516                  0.9802962       -79.89522
1.52                   0.9920443       -82.73092
1.524                  0.9971901       -86.21644
1.528                   0.992331       -90.29645
1.532                  0.9745907       -94.89099
1.536                  0.9417824       -99.90539
1.54                   0.8924997       -105.2336
1.544                  0.8261601       -110.7539
1.548                  0.7430167       -116.3143
1.552                  0.6441575       -121.6957
1.556                  0.5315311       -126.5197
1.56                   0.4081287       -129.9753
1.564                  0.2789245       -129.7827
1.568                  0.1570639       -116.6684
1.572                  0.1110939       -60.98976
1.576                  0.2050801       -25.51054
1.58                   0.3331338       -20.05257
1.584                  0.4609987       -21.90629
1.588                  0.5806391       -26.14914
1.592                  0.6880955       -31.35388
1.596                  0.7808026       -36.94639
1.6                    0.8571212       -42.63183
1.604                  0.9162545       -48.22468
1.608                  0.9582456       -53.58662
1.612                  0.9839835       -58.60095
1.616                  0.9951886       -63.16249
1.62                   0.9943623       -67.17648
1.624                  0.9846796       -70.56485
1.628                  0.9697988       -73.27943
1.632                  0.9535641       -75.32044
1.636                   0.939589       -76.75453
1.64                   0.9307665       -77.72221
1.644                  0.9288144       -78.42342
1.648                  0.9340213       -79.07984
1.652                  0.9453079       -79.88645
1.656                   0.960588       -80.97387
1.66                   0.9772918        -82.3943
1.664                  0.9928796       -84.12963
1.668                   1.005241        -86.1108
1.672                   1.012942       -88.23895
1.676                   1.015341       -90.40305
1.68                    1.012603       -92.49384
1.684                   1.005616       -94.41527
1.688                  0.9958529       -96.09518
1.692                  0.9851466       -97.49541
1.696                  0.9754171       -98.61985
1.7                    0.9683595        -99.5172
1.704                  0.9651528       -100.2746
1.708                   0.966254       -101.0016
1.712                   0.971338        -101.807
1.716                  0.9794009       -102.7772
1.72                   0.9889912       -103.9612
1.724                  0.9984997       -105.3667
1.728                   1.006439       -106.9645
1.732                   1.011666       -108.6979
1.736                   1.013523       -110.4947
1.74                    1.011903       -112.2772
1.744                   1.007239        -113.973
1.748                   1.000423       -115.5242
1.752                  0.9926666       -116.8954
1.756                  0.9853122       -118.0803
1.76                    0.979612       -119.1042
1.764                  0.9765146        -120.021
1.768                  0.9764978       -120.9035
1.772                  0.9794907       -121.8293
1.776                   0.984905       -122.8655
1.78                   0.9917644       -124.0564
1.784                  0.9988967       -125.4175
1.788                   1.005142       -126.9357
1.792                   1.009537       -128.5744
1.796                   1.011454       -130.2812
1.8                     1.010675        -131.996
1.804                   1.007415       -133.6601
1.808                   1.002271       -135.2235
1.812                   0.996137       -136.6527
1.816                   0.990054       -137.9359
1.82                   0.9850475       -139.0863
1.824                   0.981951       -140.1404
1.828                  0.9812613       -141.1522
1.832                  0.9830537        -142.183
1.836                  0.9869751       -143.2895
1.84                   0.9923223       -144.5136
1.844                  0.9981769       -145.8754
1.848                   1.003571       -147.3717
1.852                   1.007646       -148.9783
1.856                   1.009783        -150.655
1.86                    1.009687        -152.353
1.864                   1.007423       -154.0216
1.868                   1.003401       -155.6155
1.872                  0.9983041       -157.1014
1.876                  0.9929898       -158.4634
1.88                   0.9883463       -159.7059
1.884                  0.9851467       -160.8542
1.888                  0.9839151         -161.95
1.892                  0.9848346       -163.0444
1.896                   0.987719        -164.188
1.9                    0.9920526       -165.4216
1.904                  0.9970894       -166.7693
1.908                   1.001988        -168.235
1.912                   1.005954       -169.8035
1.916                   1.008361       -171.4438
1.92                     1.00885       -173.1148
1.924                    1.00737       -174.7712
1.928                   1.004186       -176.3705
1.932                  0.9998337       -177.8789
1.936                  0.9950373       -179.2766
1.94                   0.9905948        179.4384
1.944                  0.9872461        178.2496
1.948                  0.9855461        177.1238
1.952                  0.9857679        176.0172
1.956                  0.9878543        174.8832
1.96                   0.9914326        173.6812
1.964                  0.9958855        172.3839
1.968                   1.000463        170.9812
1.972                    1.00441        169.4811
1.976                   1.007091        167.9076
1.98                    1.008084         166.296
1.984                   1.007244        164.6874
1.988                   1.004721        163.1226
1.992                   1.000934        161.6364
1.996                  0.9965093        160.2519
2                       0.992181        158.9765
2.004                  0.9886701        157.8003
2.008                  0.9865638        156.6969
2.012                  0.9862106        155.6278
2.016                  0.9876597         154.549
2.02                   0.9906518        153.4199
2.024                  0.9946691        152.2098
2.028                  0.9990297        150.9037
2.032                   1.003005        149.5035
2.036                   1.005943        148.0276
2.04                    1.007366        146.5067
2.044                   1.007049        144.9788
2.048                   1.005047        143.4839
2.052                   1.001688        142.0578
2.056                  0.9975219        140.7266
2.06                   0.9932387        139.5023
2.064                  0.9895521        138.3804
2.068                  0.9870827        137.3396
2.072                  0.9862467        136.3454
2.076                  0.9871819        135.3557
2.08                   0.9897211        134.3288
2.084                  0.9934244        133.2313
2.088                  0.9976583        132.0436
2.092                   1.001708        130.7626
2.096                   1.004897        129.4019
2.1                     1.006695        127.9887
2.104                   1.006806        126.5592
2.108                   1.005203        125.1531
2.112                   1.002141        123.8075
2.116                  0.9981165        122.5517
2.12                   0.9937898        121.4018
2.124                   0.989882        120.3579
2.128                  0.9870526        119.4026
2.132                  0.9857846        118.5042
2.136                  0.9862952        117.6214
2.14                   0.9884955        116.7112
2.144                  0.9920042        115.7367
2.148                  0.9962185        114.6737
2.152                    1.00042        113.5149
2.156                   1.003896        112.2699
2.16                    1.006058        110.9633
2.164                   1.006535        109.6304
2.168                   1.005229        108.3115
2.172                   1.002333        107.0463
2.176                  0.9983037        105.8674
2.18                    0.993794        104.7954
2.184                  0.9895503        103.8345
2.188                  0.9862886        102.9709
2.192                  0.9845697        102.1745
2.196                  0.9846946        101.4036
2.2                    0.9866473        100.6122
2.204                  0.9900931         99.7591
2.208                  0.9944395         98.8149
2.212                  0.9989397        97.76734
2.216                   1.002822        96.62254
2.22                    1.005415        95.40333
2.224                   1.006257        94.14519
2.228                   1.005171        92.89077
2.232                   1.002287        91.68358
2.236                  0.9980389        90.56145
2.24                   0.9930928        89.55054
2.244                  0.9882532        88.66022
2.248                    0.98433        87.88032
2.252                  0.9819981        87.18153
2.256                  0.9816724         86.5196
2.26                   0.9834247        85.84326
2.264                  0.9869638         85.1037
2.268                  0.9916843        84.26373
2.272                  0.9967709        83.30428
2.276                   1.001338        82.22705
2.28                    1.004576        81.05344
2.284                   1.005882        79.82077
2.288                   1.004952        78.57642
2.292                   1.001838        77.37124
2.296                  0.9969458        76.25216
2.3                    0.9909912        75.25492
2.304                  0.9848966        74.39757
2.308                  0.9796517        73.67535
2.312                  0.9761452         73.0594
2.316                  0.9750002        72.49972
2.32                   0.9764463         71.9334
2.324                  0.9802605        71.29615
2.328                  0.9857935        70.53453
2.332                  0.9920757        69.61565
2.336                  0.9979771        68.53219
2.34                     1.00239        67.30273
2.344                   1.004399        65.96819
2.348                   1.003428        64.58569
2.352                    0.99933        63.22133