! TOUCHSTONE file generated by CST MICROWAVE STUDIO
! Date and time: Tue Jun  7 21:31:17 2022
! Project name: AppElm_antenne_patch_FR4.cst
! Parameters = {L=45; W=58.5; e=0.035; h=1.6; lambda=0.190476; ls=120; w0=1.52; w1=0.533; ws=120; y0=20; y1=23.81}
! Header version: 2018
! Port assignment regex: !\s*Touchstone port\s*([0-9]+)\s*=\s*(CST MWS port|CST DS port)\s*([0-9]+|Zmin|Zmax)\s*\(\"(.*)\"\)(\s*mode\s*([0-9]+))?.*
! Touchstone port assignment:
! Touchstone port 1 = CST MWS port 1 ("")
# GHz S MA R 50
0                      0.9893529              -0
0.004                  0.9899872       -9.926505
0.008                  0.9918027       -19.76659
0.012                  0.9945517       -29.43802
0.016                  0.9978632       -38.86628
0.02                    1.001298       -47.98695
0.024                   1.004411       -56.74687
0.028                   1.006813       -65.10438
0.032                   1.008222       -73.02875
0.036                   1.008492       -80.49964
0.04                    1.007637       -87.50648
0.044                   1.005817       -94.04824
0.048                   1.003319       -100.1334
0.052                   1.000514       -105.7799
0.056                  0.9978015       -111.0148
0.06                   0.9955564       -115.8734
0.064                  0.9940731       -120.3975
0.068                  0.9935243       -124.6321
0.072                  0.9939396       -128.6229
0.076                  0.9952054        -132.412
0.08                   0.9970878        -136.035
0.084                  0.9992743       -139.5192
0.088                   1.001423       -142.8823
0.092                   1.003216       -146.1331
0.096                   1.004404       -149.2727
0.1                     1.004842        -152.297
0.104                   1.004503       -155.1994
0.108                   1.003478       -157.9731
0.112                   1.001959       -160.6139
0.116                   1.000205        -163.122
0.12                    0.998501       -165.5031
0.124                  0.9971152       -167.7687
0.128                  0.9962542        -169.935
0.132                   0.996034       -172.0217
0.136                  0.9964639       -174.0487
0.14                   0.9974481       -176.0347
0.144                  0.9988065       -177.9939
0.148                   1.000305       -179.9354
0.152                   1.001699        178.1379
0.156                   1.002766        176.2289
0.16                    1.003347        174.3448
0.164                   1.003367        172.4957
0.168                   1.002841        170.6923
0.172                   1.001873        168.9438
0.176                   1.000635        167.2565
0.18                   0.9993371         165.632
0.184                  0.9981955        164.0671
0.188                  0.9973937        162.5542
0.192                  0.9970548        161.0817
0.196                  0.9972217        159.6368
0.2                    0.9978522        158.2064
0.204                  0.9988282          156.78
0.208                  0.9999773        155.3506
0.212                   1.001103        153.9159
0.216                   1.002018        152.4781
0.22                    1.002576        151.0435
0.224                   1.002691        149.6212
0.228                   1.002354        148.2209
0.232                    1.00163         146.852
0.236                    1.00065        145.5213
0.24                   0.9995814        144.2322
0.244                  0.9986063        142.9839
0.248                  0.9978873        141.7714
0.252                   0.997541        140.5865
0.256                   0.997619        139.4189
0.26                   0.9981002        138.2581
0.264                  0.9988949        137.0951
0.268                  0.9998626        135.9239
0.272                   1.000835         134.742
0.276                   1.001647        133.5513
0.28                    1.002164        132.3571
0.284                   1.002301        131.1674
0.288                    1.00204        129.9911
0.292                   1.001432         128.837
0.296                   1.000584        127.7118
0.3                    0.9996431        126.6191
0.304                  0.9987711         125.559
0.308                  0.9981168        124.5275
0.312                  0.9977896        123.5178
0.316                  0.9978424         122.521
0.32                   0.9982613        121.5277
0.324                  0.9989701        120.5297
0.328                  0.9998435        119.5215
0.332                   1.000729        118.5008
0.336                   1.001474        117.4692
0.34                    1.001953        116.4316
0.344                   1.002085        115.3953
0.348                    1.00185        114.3688
0.352                   1.001293        113.3602
0.356                   1.000511        112.3761
0.36                    0.999642          111.42
0.364                  0.9988362        110.4922
0.368                  0.9982334        109.5891
0.372                  0.9979375        108.7044
0.376                  0.9979982        107.8297
0.38                   0.9984032        106.9563
0.384                  0.9990798        106.0767
0.388                  0.9999089        105.1855
0.392                   1.000745        104.2808
0.396                   1.001444        103.3641
0.4                     1.001884        102.4402
0.404                    1.00199        101.5163
0.408                   1.001745        100.6005
0.412                   1.001193        99.70088
0.416                   1.000431        98.82356
0.42                   0.9995914        97.97194
0.424                  0.9988217        97.14608
0.428                  0.9982562        96.34252
0.432                  0.9979939        95.55494
0.436                  0.9980797        94.77522
0.44                   0.9984982        93.99491
0.444                  0.9991752        93.20663
0.448                  0.9999908        92.40546
0.452                   1.000802        91.58973
0.456                   1.001467        90.76127
0.46                    1.001868        89.92504
0.464                   1.001937        89.08824
0.468                    1.00166        88.25911
0.472                   1.001087        87.44539
0.476                   1.000318        86.65309
0.48                   0.9994873        85.88529
0.484                  0.9987415        85.14175
0.488                  0.9982121        84.41869
0.492                  0.9979931        83.70958
0.496                  0.9981235        83.00619
0.5                    0.9985805         82.3001
0.504                  0.9992836        81.58416
0.508                   1.000108        80.85379
0.512                   1.000909        80.10776
0.516                   1.001544        79.34834
0.52                    1.001901        78.58087
0.524                   1.001916        77.81297
0.528                   1.001585        77.05293
0.532                   1.000964        76.30851
0.536                   1.000163        75.58548
0.54                   0.9993205        74.88659
0.544                  0.9985862        74.21103
0.548                  0.9980903        73.55452
0.552                  0.9979214        72.91008
0.556                  0.9981102        72.26915
0.56                   0.9986242        71.62323
0.564                  0.9993726        70.96532
0.568                   1.000223        70.29121
0.572                   1.001024        69.60019
0.576                   1.001633        68.89521
0.58                    1.001941        68.18224
0.584                   1.001892        67.46931
0.588                   1.001493        66.76505
0.592                   1.000811        66.07723
0.596                  0.9999672        65.41135
0.6                    0.9991092        64.76964
0.604                  0.9983901        64.15062
0.608                  0.9979391         63.5493
0.612                  0.9978384        62.95801
0.616                  0.9981081        62.36774
0.62                   0.9987021        61.76981
0.624                  0.9995159        61.15741
0.628                   1.000405        60.52679
0.632                   1.001212        59.87801
0.636                   1.001791        59.21477
0.64                    1.002039        58.54391
0.644                   1.001907         57.8741
0.648                   1.001418        57.21434
0.652                   1.000654        56.57244
0.656                  0.9997497        55.95359
0.66                   0.9988644        55.35937
0.664                  0.9981567        54.78744
0.668                  0.9977544        54.23187
0.672                  0.9977319        53.68416
0.676                  0.9980955        53.13472
0.68                   0.9987829        52.57466
0.684                  0.9996724        51.99736
0.688                   1.000606        51.39972
0.692                   1.001416        50.78262
0.696                   1.001957        50.15085
0.7                     1.002129        49.51216
0.704                   1.001898        48.87602
0.708                   1.001302        48.25184
0.712                   1.000443        47.64745
0.716                  0.9994725        47.06756
0.72                   0.9985625        46.51298
0.724                  0.9978773        45.98026
0.728                  0.9975425        45.46234
0.732                  0.9976216        44.94969
0.736                   0.998104        44.43209
0.74                   0.9989065        43.90044
0.744                  0.9998872        43.34844
0.748                   1.000871        42.77376
0.752                   1.001682        42.17841
0.756                   1.002171        41.56836
0.76                    1.002248        40.95258
0.764                   1.001895         40.3414
0.768                   1.001168        39.74472
0.772                   1.000194        39.17028
0.776                  0.9991428        38.62227
0.78                    0.998203        38.10041
0.784                  0.9975444        37.59998
0.788                  0.9972877        37.11258
0.792                  0.9974834        36.62752
0.796                  0.9981003        36.13384
0.8                    0.9990303        35.62229
0.804                   1.000108        35.08704
0.808                    1.00114         34.5267
0.812                   1.001939        33.94461
0.816                   1.002359        33.34823
0.82                    1.002319        32.74781
0.824                    1.00182        32.15467
0.828                   1.000944        31.57915
0.832                  0.9998431        31.02882
0.836                  0.9987126        30.50708
0.84                   0.9977551        30.01236
0.844                  0.9971455        29.53839
0.848                  0.9969983        29.07513
0.852                  0.9973457         28.6106
0.856                  0.9981305         28.1331
0.86                   0.9992154        27.63329
0.864                   1.000408        27.10598
0.868                   1.001493        26.55103
0.872                   1.002274         25.9734
0.876                   1.002607        25.38223
0.88                    1.002424        24.78933
0.884                   1.001751        24.20705
0.888                   1.000701        23.64619
0.892                  0.9994563        23.11403
0.896                   0.998238        22.61294
0.9                    0.9972661        22.13981
0.904                   0.996719        21.68646
0.908                  0.9967016        21.24103
0.912                  0.9972237        20.79012
0.916                  0.9981967        20.32122
0.92                   0.9994493        19.82509
0.924                   1.000758        19.29738
0.928                   1.001885        18.73951
0.932                   1.002626        18.15834
0.936                   1.002839          17.565
0.94                    1.002477        16.97298
0.944                   1.001597        16.39579
0.948                   1.000346        15.84459
0.952                  0.9989429        15.32615
0.956                  0.9976387        14.84152
0.96                   0.9966704        14.38562
0.964                   0.996219        13.94803
0.968                  0.9963746        13.51475
0.972                  0.9971177        13.07075
0.976                  0.9983221        12.60277
0.98                   0.9997758        12.10176
0.984                   1.001219        11.56457
0.988                    1.00239        10.99451
0.992                   1.003074        10.40075
0.996                   1.003139        9.796758
1                       1.002563        9.197958
1.004                   1.001435        8.619106
1.008                  0.9999494        8.071679
1.012                  0.9983657         7.56174
1.016                  0.9969679        7.088666
1.02                   0.9960119        6.645021
1.024                  0.9956786        6.217707
1.028                  0.9960384        5.790259
1.032                  0.9970362        5.345864
1.036                  0.9984998        4.870507
1.04                    1.000169        4.355582
1.044                   1.001745        3.799475
1.048                   1.002938        3.207847
1.052                   1.003525        2.592635
1.056                   1.003389        1.970012
1.06                    1.002536        1.357628
1.064                   1.001105       0.7715842
1.068                  0.9993395       0.2235736
1.072                  0.9975492      -0.2813585
1.076                   0.996057      -0.7459914
1.08                   0.9951386       -1.180732
1.084                   0.994972       -1.601948
1.088                  0.9956008       -2.029063
1.092                  0.9969247       -2.480951
1.096                  0.9987144        -2.97239
1.1                     1.000652       -3.511306
1.104                    1.00239       -4.097311
1.108                   1.003609       -4.721863
1.112                   1.004078       -5.369639
1.116                   1.003696       -6.021184
1.12                    1.002512       -6.656255
1.124                   1.000717       -7.257175
1.128                  0.9986197       -7.812046
1.132                  0.9965898       -8.317196
1.136                  0.9949953       -8.778102
1.14                   0.9941346       -9.208845
1.144                  0.9941793       -9.629789
1.148                  0.9951387       -10.06391
1.152                  0.9968549       -10.53247
1.156                  0.9990282       -11.05101
1.16                    1.001271       -11.62645
1.164                   1.003177       -12.25584
1.168                   1.004392       -12.92692
1.172                   1.004678       -13.62022
1.176                   1.003959       -14.31229
1.18                    1.002334       -14.97965
1.184                   1.000067       -15.60276
1.188                  0.9975461       -16.16962
1.192                  0.9952166       -16.67832
1.196                  0.9935039       -17.13788
1.2                     0.992734       -17.56718
1.204                  0.9930689       -17.99175
1.208                  0.9944724       -18.43915
1.212                  0.9967114       -18.93367
1.216                  0.9993959       -19.49178
1.22                    1.002048       -20.11906
1.224                   1.004185       -20.80922
1.228                   1.005408        -21.5453
1.232                   1.005471       -22.30246
1.236                   1.004327       -23.05213
1.24                    1.002141       -23.76662
1.244                  0.9992692       -24.42389
1.248                  0.9962031        -25.0117
1.252                  0.9934878       -25.53038
1.256                  0.9916244       -25.99358
1.26                   0.9909751        -26.4265
1.264                  0.9916904       -26.86156
1.268                  0.9936733       -27.33237
1.272                  0.9965915       -27.86728
1.276                  0.9999333       -28.48393
1.28                    1.003099       -29.18608
1.284                   1.005508       -29.96302
1.288                   1.006696       -30.79145
1.292                   1.006404       -31.63934
1.296                   1.004625       -32.47104
1.3                     1.001611       -33.25295
1.304                  0.9978461       -33.95932
1.308                  0.9939683       -34.57723
1.312                  0.9906652        -35.1099
1.316                  0.9885506       -35.57741
1.32                   0.9880454       -36.01404
1.324                  0.9892892       -36.46232
1.328                  0.9921035       -36.96497
1.332                   0.996015       -37.55655
1.336                   1.000338       -38.25688
1.34                    1.004294       -39.06751
1.344                    1.00715        -39.9717
1.348                   1.008343       -40.93735
1.352                   1.007579       -41.92209
1.356                   1.004898       -42.87975
1.36                    1.000671       -43.76753
1.364                  0.9955633       -44.55331
1.368                  0.9904334       -45.22212
1.372                  0.9861922       -45.78069
1.376                  0.9836386        -46.2584
1.38                      0.9833       -46.70354
1.384                  0.9853156       -47.17492
1.388                   0.989391       -47.73034
1.392                  0.9948381       -48.41515
1.396                   1.000694       -49.25355
1.4                     1.005888       -50.24458
1.404                   1.009427       -51.36281
1.408                   1.010561       -52.56264
1.412                   1.008918       -53.78523
1.416                   1.004575        -54.9667
1.42                   0.9980781       -56.04744
1.424                  0.9903844       -56.98198
1.428                  0.9827344       -57.74871
1.432                  0.9764571       -58.35753
1.436                  0.9727297       -58.85266
1.44                    0.972334       -59.30813
1.444                  0.9754706       -59.81495
1.448                  0.9816803       -60.46296
1.452                  0.9899031       -61.32233
1.456                  0.9986565       -62.43039
1.46                    1.006289       -63.78626
1.464                    1.01125       -65.35276
1.468                   1.012337       -67.06309
1.472                   1.008893       -68.82979
1.476                   1.000934       -70.55507
1.48                   0.9892086       -72.14265
1.484                  0.9751636         -73.512
1.488                  0.9608057       -74.61576
1.492                  0.9484302       -75.45835
1.496                  0.9402248       -76.11015
1.5                    0.9377937       -76.70855
1.504                  0.9417219       -77.43893
1.508                  0.9513205        -78.4981
1.512                  0.9646469       -80.05402
1.516                   0.978781       -82.21781
1.52                   0.9902449         -85.036
1.524                  0.9954346       -88.49903
1.528                    0.99098       -92.55702
1.532                  0.9740041       -97.13479
1.536                  0.9422909       -102.1422
1.54                   0.8943818       -107.4781
1.544                  0.8296224       -113.0279
1.548                  0.7481749       -118.6504
1.552                  0.6510138       -124.1474
1.556                  0.5399375       -129.1846
1.56                   0.4176908        -133.064
1.564                  0.2886474       -133.8701
1.568                  0.1633155       -123.8776
1.572                 0.09986536       -70.11909
1.576                   0.186721       -27.61266
1.58                   0.3146202       -21.20203
1.584                  0.4429983       -22.95097
1.588                  0.5635211       -27.21278
1.592                  0.6722253       -32.45926
1.596                  0.7665301       -38.09817
1.6                    0.8447534       -43.83242
1.604                  0.9060298         -49.478
1.608                  0.9503137        -54.8991
1.612                  0.9783864       -59.98177
1.616                  0.9918466       -64.62346
1.62                   0.9930648       -68.73152
1.624                  0.9850845       -72.22853
1.628                  0.9714452       -75.06461
1.632                   0.955904       -77.23459
1.636                  0.9420453       -78.79572
1.64                   0.9328107       -79.87634
1.644                  0.9300497       -80.66482
1.648                  0.9342453       -81.37584
1.652                  0.9445289       -82.20456
1.656                  0.9589949       -83.28802
1.66                   0.9751921       -84.68832
1.664                  0.9906283       -86.39742
1.668                   1.003177       -88.35474
1.672                   1.011343       -90.46759
1.676                    1.01439        -92.6289
1.68                    1.012369       -94.73135
1.684                   1.006057       -96.67896
1.688                  0.9968183       -98.39768
1.692                  0.9864058       -99.84544
1.696                  0.9766941       -101.0203
1.7                    0.9693818       -101.9639
1.704                  0.9657007       -102.7566
1.708                  0.9662019       -103.5033
1.712                  0.9706758       -104.3113
1.716                  0.9782299       -105.2689
1.72                   0.9874976       -106.4298
1.724                  0.9969166       -107.8074
1.728                   1.005004       -109.3781
1.732                   1.010584       -111.0901
1.736                   1.012939       -112.8746
1.74                    1.011882       -114.6558
1.744                   1.007759       -116.3618
1.748                    1.00138       -117.9334
1.752                  0.9938905       -119.3323
1.756                  0.9865926        -120.548
1.76                   0.9807331       -121.6005
1.764                  0.9772928       -122.5385
1.768                  0.9768142        -123.431
1.772                  0.9793108       -124.3537
1.776                  0.9842821       -125.3742
1.78                   0.9908251       -126.5398
1.784                  0.9978143         -127.87
1.788                   1.004104       -129.3563
1.792                   1.008717       -130.9663
1.796                    1.01098       -132.6506
1.8                     1.010619       -134.3513
1.804                   1.007776       -136.0102
1.808                   1.002984       -137.5767
1.812                   0.997075       -139.0152
1.816                   0.991056       -140.3106
1.82                   0.9859411       -141.4722
1.824                   0.982583       -142.5322
1.828                  0.9815254       -143.5412
1.832                  0.9829082       -144.5587
1.836                  0.9864505       -145.6414
1.84                   0.9915124       -146.8331
1.844                  0.9972205       -148.1571
1.848                   1.002626       -149.6137
1.852                   1.006864       -151.1825
1.856                   1.009285       -152.8262
1.86                    1.009547       -154.4979
1.864                   1.007658        -156.148
1.868                   1.003967       -157.7309
1.872                  0.9991081       -159.2118
1.876                  0.9938986       -160.5722
1.88                   0.9892116       -161.8134
1.884                  0.9858291       -162.9569
1.888                  0.9843081       -164.0415
1.892                  0.9848832       -165.1161
1.896                   0.987428        -166.231
1.9                    0.9914841        -167.428
1.904                  0.9963503       -168.7334
1.908                   1.001209       -170.1543
1.912                   1.005269       -171.6787
1.916                   1.007885       -173.2783
1.92                     1.00866        -174.914
1.924                   1.007498       -176.5418
1.928                    1.00461       -178.1193
1.932                   1.000485       -179.6118
1.936                  0.9958097        179.0024
1.94                   0.9913622        177.7281
1.944                  0.9878827        176.5517
1.948                  0.9859485        175.4431
1.952                  0.9858728        174.3604
1.956                  0.9876497        173.2581
1.96                   0.9909587         172.095
1.964                  0.9952264        170.8419
1.968                  0.9997311        169.4863
1.972                   1.003727        168.0335
1.976                   1.006568        166.5046
1.98                    1.007805        164.9329
1.984                   1.007253         163.358
1.988                   1.005014        161.8204
1.992                   1.001464        160.3553
1.996                  0.9971903        158.9871
2                      0.9929016        157.7257
2.004                  0.9893125        156.5637
2.008                  0.9870234        155.4777
2.012                  0.9864147        154.4311
2.016                  0.9875791        153.3815
2.02                   0.9903064        152.2881
2.024                  0.9941227        151.1191
2.028                  0.9983785        149.8573
2.032                   1.002361        148.5023
2.036                   1.005414        147.0695
2.04                    1.007041        145.5876
2.044                   1.006982         144.093
2.048                   1.005249         142.625
2.052                   1.002126        141.2195
2.056                  0.9981261        139.9036
2.06                   0.9939072        138.6914
2.064                  0.9901722        137.5808
2.068                  0.9875476        136.5533
2.072                  0.9864752        135.5766
2.076                  0.9871323        134.6104
2.08                   0.9894001        133.6135
2.084                  0.9928837        132.5514
2.088                  0.9969869        131.4028
2.092                   1.001015        130.1622
2.096                   1.004295        128.8404
2.1                     1.006282        127.4624
2.104                   1.006646        126.0624
2.108                   1.005321        124.6791
2.112                   1.002517        123.3496
2.116                  0.9986856        122.1039
2.12                   0.9944542          120.96
2.124                  0.9905248        119.9202
2.128                  0.9875583        118.9704
2.132                  0.9860587        118.0813
2.136                  0.9862824        117.2137
2.14                   0.9881887        116.3254
2.144                  0.9914476        115.3788
2.148                   0.995499        114.3484
2.152                   0.999651        113.2239
2.156                     1.0032        112.0124
2.16                    1.005545        110.7356
2.164                   1.006285        109.4267
2.168                   1.005278        108.1247
2.172                   1.002666        106.8688
2.176                   0.998859        105.6924
2.18                   0.9944673        104.6178
2.184                  0.9902124         103.652
2.188                  0.9868072        102.7844
2.192                  0.9848323        101.9881
2.196                  0.9846302        101.2238
2.2                    0.9862402        100.4469
2.204                  0.9893877        99.61559
2.208                  0.9935324        98.69887
2.212                  0.9979634         97.6815
2.216                   1.001922        96.56626
2.22                    1.004726        95.37267
2.224                   1.005883        94.13353
2.228                   1.005161         92.8896
2.232                   1.002635        91.68374
2.236                   0.998672        90.55443
2.24                   0.9938884        89.52977
2.244                  0.9890525        88.62234
2.248                  0.9849647          87.826
2.252                  0.9823198        87.11548
2.256                  0.9815813        86.45001
2.26                   0.9828901        85.78019
2.264                  0.9860323        85.05704
2.268                  0.9904722         84.2413
2.272                  0.9954452        83.31026
2.276                   1.000088        82.26122
2.28                    1.003582        81.11128
2.284                   1.005283        79.89397
2.288                   1.004824        78.65412
2.292                   1.002178        77.44138
2.296                  0.9976674        76.30319
2.3                    0.9919324        75.27774
2.304                  0.9858419        74.38707
2.308                  0.9803655        73.63198
2.312                  0.9764133        72.98949
2.316                  0.9746718        72.41488
2.32                   0.9754674        71.84838
2.324                  0.9786899        71.22596
2.328                  0.9837976        70.49134
2.332                  0.9899021        69.60636
2.336                  0.9959142        68.55711
2.34                     1.00072        67.35546
2.344                   1.003352        66.03635
2.348                   1.003143         64.6525
2.352                  0.9998275        63.26746