! TOUCHSTONE file generated by CST MICROWAVE STUDIO
! Date and time: Tue Jun  7 21:31:14 2022
! Project name: AppElm_antenne_patch_FR4.cst
! Parameters = {L=45; W=58.5; e=0.035; h=1.6; lambda=0.190476; ls=120; w0=1.28; w1=0.533; ws=120; y0=20; y1=23.81}
! Header version: 2018
! Port assignment regex: !\s*Touchstone port\s*([0-9]+)\s*=\s*(CST MWS port|CST DS port)\s*([0-9]+|Zmin|Zmax)\s*\(\"(.*)\"\)(\s*mode\s*([0-9]+))?.*
! Touchstone port assignment:
! Touchstone port 1 = CST MWS port 1 ("")
# GHz S MA R 50
0                      0.9895936              -0
0.004                  0.9902076       -9.915184
0.008                  0.9919662       -19.74618
0.012                  0.9946318        -29.4128
0.016                   0.997848       -38.84222
0.02                    1.001193       -47.97132
0.024                   1.004236       -56.74781
0.028                   1.006602       -65.13053
0.032                   1.008011       -73.08892
0.036                   1.008321       -80.60254
0.04                    1.007535       -87.66049
0.044                   1.005803       -94.26113
0.048                   1.003396       -100.4121
0.052                   1.000668       -106.1302
0.056                  0.9980049       -111.4412
0.06                    0.995772       -116.3789
0.064                  0.9942609       -120.9833
0.068                  0.9936488       -125.2982
0.072                  0.9939759       -129.3678
0.076                  0.9951443       -133.2334
0.08                   0.9969377       -136.9306
0.084                  0.9990593       -140.4867
0.088                   1.001179         -143.92
0.092                   1.002984       -147.2401
0.096                   1.004225       -150.4489
0.1                     1.004747       -153.5433
0.104                   1.004509       -156.5169
0.108                   1.003586       -159.3633
0.112                   1.002151       -162.0779
0.116                    1.00045       -164.6605
0.12                   0.9987577       -167.1158
0.124                  0.9973394       -169.4542
0.128                  0.9964072       -171.6911
0.132                  0.9960886        -173.845
0.136                  0.9964097       -175.9356
0.14                   0.9972939       -177.9814
0.144                   0.998578       -179.9971
0.148                   1.000041        178.0074
0.152                   1.001443        176.0282
0.156                   1.002563        174.0672
0.16                    1.003232        172.1306
0.164                   1.003358         170.228
0.168                   1.002941        168.3696
0.172                   1.002065        166.5649
0.176                   1.000887        164.8208
0.18                   0.9996065        163.1397
0.184                   0.998436        161.5196
0.188                  0.9975638        159.9537
0.192                  0.9971255        158.4317
0.196                  0.9971809        156.9409
0.2                    0.9977072        155.4685
0.204                  0.9986041        154.0034
0.208                  0.9997131         152.538
0.212                   1.000845        151.0688
0.216                    1.00181        149.5971
0.22                    1.002454         148.128
0.224                   1.002676          146.67
0.228                    1.00245        145.2326
0.232                   1.001821        143.8251
0.236                   1.000902        142.4551
0.24                   0.9998521        141.1269
0.244                   0.998849        139.8406
0.248                  0.9980601        138.5924
0.252                  0.9976141        137.3749
0.256                  0.9975798        136.1785
0.26                   0.9979553        134.9926
0.264                    0.99867        133.8078
0.268                  0.9995963        132.6173
0.272                   1.000574        131.4176
0.276                   1.001436        130.2094
0.28                    1.002038        128.9972
0.284                   1.002283         127.788
0.288                   1.002133        126.5907
0.292                   1.001619         125.414
0.296                   1.000832        124.2653
0.3                    0.9999099        123.1491
0.304                  0.9990098        122.0665
0.308                  0.9982859        121.0147
0.312                    0.99786        119.9877
0.316                  0.9978015         118.977
0.32                   0.9981168        117.9735
0.324                  0.9987476        116.9684
0.328                  0.9995819        115.9553
0.332                   1.000474         114.931
0.336                   1.001271         113.896
0.34                    1.001836        112.8541
0.344                   1.002075         111.812
0.348                   1.001949        110.7778
0.352                   1.001482          109.76
0.356                   1.000759        108.7656
0.36                   0.9999043        107.7992
0.364                  0.9990674        106.8619
0.368                   0.998393        105.9514
0.372                  0.9979976        105.0621
0.376                  0.9979487        104.1862
0.38                   0.9982528         103.315
0.384                  0.9988556        102.4403
0.388                  0.9996503        101.5561
0.392                   1.000498        100.6593
0.396                   1.001251        99.75036
0.4                      1.00178        98.83315
0.404                   1.001993        97.91419
0.408                   1.001854        97.00147
0.412                   1.001389        96.10311
0.416                    1.00068        95.22596
0.42                   0.9998498        94.37437
0.424                  0.9990446        93.54945
0.428                  0.9984047        92.74877
0.432                  0.9980422        91.96681
0.436                  0.9980205        91.19588
0.44                   0.9983426         90.4274
0.444                  0.9989514        89.65354
0.448                  0.9997394        88.86847
0.452                   1.000568        88.06951
0.456                   1.001291        87.25734
0.46                    1.001783        86.43608
0.464                   1.001957        85.61235
0.468                   1.001782        84.79421
0.472                   1.001289        83.98975
0.476                   1.000565        83.20561
0.48                    0.999736        82.44587
0.484                  0.9989477        81.71131
0.488                    0.99834        80.99917
0.492                  0.9980202        80.30364
0.496                  0.9980456        79.61681
0.5                     0.998412        78.93013
0.504                   0.999055        78.23585
0.508                  0.9998607         77.5285
0.512                   1.000687        76.80579
0.516                   1.001387        76.06892
0.52                    1.001837        75.32249
0.524                   1.001956        74.57352
0.528                   1.001722        73.83031
0.532                   1.001175        73.10098
0.536                   1.000411        72.39204
0.54                   0.9995615         71.7072
0.544                  0.9987785        71.04671
0.548                  0.9982006        70.40724
0.552                  0.9979313        69.78241
0.556                  0.9980192        69.16394
0.56                   0.9984501        68.54306
0.564                  0.9991477        67.91214
0.568                  0.9999887        67.26604
0.572                   1.000823        66.60299
0.576                   1.001502        65.92497
0.58                    1.001905         65.2372
0.584                   1.001957        64.54733
0.588                   1.001648        63.86405
0.592                    1.00103        63.19556
0.596                   1.000212        62.54815
0.6                    0.9993365        61.92507
0.604                  0.9985609        61.32582
0.608                  0.9980239         60.7463
0.612                  0.9978234        60.17936
0.616                  0.9979974        59.61611
0.62                   0.9985172        59.04754
0.624                  0.9992911        58.46613
0.628                   1.000182        57.86717
0.632                   1.001031        57.24968
0.636                   1.001687        56.61649
0.64                    1.002029        55.97376
0.644                   1.001996        55.32991
0.648                    1.00159        54.69409
0.652                   1.000879        54.07464
0.656                  0.9999899        53.47759
0.66                   0.9990782        52.90552
0.664                  0.9983077        52.35704
0.668                  0.9978178        51.82698
0.672                  0.9976987        51.30727
0.676                  0.9979744        50.78833
0.68                    0.998598        50.26081
0.684                  0.9994597        49.71736
0.688                   1.000406        49.15388
0.692                   1.001266        48.57031
0.696                   1.001886        47.97059
0.7                     1.002152        47.36199
0.704                   1.002013         46.7538
0.708                   1.001489        46.15572
0.712                   1.000671        45.57618
0.716                  0.9997022        45.02076
0.72                   0.9987554        44.49121
0.724                   0.998001        43.98501
0.728                  0.9975773        43.49571
0.732                  0.9975641        43.01411
0.736                  0.9979673        42.52983
0.74                   0.9987179        42.03327
0.744                  0.9996832         41.5173
0.748                   1.000691        40.97866
0.752                   1.001559        40.41843
0.756                    1.00213        39.84192
0.76                    1.002298        39.25767
0.764                   1.002028        38.67601
0.768                   1.001362        38.10719
0.772                   1.000417        37.55966
0.776                  0.9993579        37.03842
0.78                    0.998374        36.54413
0.784                  0.9976436        36.07288
0.788                  0.9973014        35.61675
0.792                  0.9974134        35.16522
0.796                  0.9979631        34.70709
0.8                    0.9988552        34.23251
0.804                  0.9999307        33.73481
0.808                   1.000996        33.21173
0.812                   1.001858        32.66581
0.816                   1.002359        32.10391
0.82                    1.002402        31.53607
0.824                   1.001975        30.97369
0.828                   1.001147        30.42757
0.832                   1.000062          29.906
0.836                  0.9989111        29.41319
0.84                   0.9979023        28.94844
0.844                  0.9972199         28.5061
0.848                  0.9969916        28.07653
0.852                  0.9972647        27.64775
0.856                   0.997995        27.20771
0.86                   0.9990553        26.74643
0.864                   1.000257        26.25791
0.868                   1.001382        25.74121
0.872                   1.002228         25.2006
0.876                   1.002636        24.64483
0.88                    1.002528        24.08558
0.884                   1.001914        23.53542
0.888                   1.000898        23.00567
0.892                   0.999657        22.50429
0.896                  0.9984111        22.03444
0.9                     0.997386        21.59369
0.904                  0.9967709         21.1744
0.908                   0.996683         20.7649
0.912                  0.9971453        20.35168
0.916                    0.99808        19.92181
0.92                   0.9993225        19.46537
0.924                    1.00065        18.97733
0.928                   1.001823        18.45838
0.932                   1.002624         17.9149
0.936                   1.002905        17.35776
0.94                    1.002604        16.80049
0.944                   1.001767        16.25691
0.948                   1.000534        15.73869
0.952                  0.9991228        15.25325
0.956                  0.9977849         14.8023
0.96                   0.9967645        14.38131
0.964                  0.9962526        13.98019
0.968                  0.9963506        13.58499
0.972                  0.9970497        13.18046
0.976                   0.998231        12.75285
0.98                   0.9996861        12.29255
0.984                   1.001154        11.79579
0.988                   1.002368        11.26537
0.992                   1.003105        10.71016
0.996                   1.003222        10.14353
1                       1.002688        9.581056
1.004                   1.001586        9.037851
1.008                   1.000105        8.525872
1.012                  0.9985057        8.051712
1.016                  0.9970752        7.615221
1.02                   0.9960768        7.209295
1.024                  0.9956998        6.820967
1.028                   0.996023         6.43367
1.032                  0.9969984        6.030287
1.036                   0.998457        5.596376
1.04                    1.000139        5.122867
1.044                   1.001742        4.607743
1.048                   1.002971        4.056396
1.052                   1.003596        3.480674
1.056                   1.003491        2.896831
1.06                    1.002659        2.322756
1.064                   1.001235        1.774892
1.068                  0.9994619          1.2653
1.072                  0.9976531       0.7993546
1.076                  0.9961358       0.3745006
1.08                   0.9951919     -0.01959521
1.084                  0.9950047      -0.3993905
1.088                  0.9956224      -0.7845327
1.092                   0.996946       -1.194198
1.096                  0.9987456       -1.643467
1.1                     1.000701       -2.140499
1.104                   1.002457       -2.685034
1.108                   1.003693       -3.268454
1.112                   1.004172        -3.87533
1.116                   1.003792       -4.485977
1.12                      1.0026       -5.079794
1.124                   1.000791       -5.638967
1.128                  0.9986784        -6.15146
1.132                  0.9966358       -6.613524
1.136                  0.9950359       -7.030792
1.14                   0.9941803       -7.417605
1.144                  0.9942408       -7.794646
1.148                  0.9952245       -8.185195
1.152                  0.9969683       -8.610722
1.156                  0.9991666       -9.086812
1.16                    1.001425       -9.620245
1.164                   1.003333       -10.20778
1.168                   1.004534       -10.83676
1.172                   1.004792       -11.48728
1.176                   1.004034       -12.13554
1.18                    1.002369       -12.75782
1.184                    1.00007       -13.33458
1.188                   0.997532       -13.85405
1.192                  0.9952082       -14.31478
1.196                   0.993526        -14.7264
1.2                     0.992808       -15.10846
1.204                   0.993209       -15.48703
1.208                  0.9946801       -15.88996
1.212                  0.9969752       -16.34149
1.216                  0.9996915       -16.85768
1.22                    1.002342       -17.44339
1.224                   1.004442       -18.09149
1.228                   1.005597       -18.78413
1.232                    1.00557       -19.49577
1.236                    1.00433       -20.19736
1.24                    1.002061       -20.86118
1.244                  0.9991362        -21.4656
1.248                  0.9960622       -21.99919
1.252                  0.9933903       -22.46348
1.256                  0.9916185       -22.87344
1.26                   0.9910963       -23.25545
1.264                  0.9919527       -23.64271
1.268                  0.9940649       -24.06899
1.272                  0.9970744       -24.56208
1.276                    1.00045       -25.13846
1.28                    1.003582       -25.80032
1.284                    1.00589       -26.53528
1.288                   1.006926       -27.31856
1.292                   1.006456       -28.11705
1.296                   1.004502       -28.89462
1.3                     1.001354       -29.61798
1.304                  0.9975226       -30.26245
1.308                  0.9936677       -30.81694
1.312                  0.9904817       -31.28697
1.316                  0.9885654       -31.69503
1.32                   0.9883093        -32.0773
1.324                  0.9898103       -32.47735
1.328                  0.9928416       -32.93764
1.332                  0.9968869       -33.49125
1.336                    1.00123       -34.15555
1.34                    1.005083       -34.92918
1.344                   1.007723       -35.79251
1.348                   1.008619       -36.71101
1.352                   1.007528       -37.64077
1.356                   1.004544        -38.5352
1.36                    1.000101       -39.35236
1.364                  0.9949108       -40.06236
1.368                  0.9898632        -40.6537
1.372                  0.9858708       -41.13734
1.376                  0.9837016       -41.54687
1.38                   0.9838228       -41.93383
1.384                   0.986293       -42.35831
1.388                  0.9907317       -42.87715
1.392                  0.9963783       -43.53246
1.396                   1.002224       -44.34375
1.4                     1.007187       -45.30482
1.404                   1.010304       -46.38526
1.408                   1.010887       -47.53561
1.412                   1.008652       -48.69457
1.416                   1.003783       -49.79774
1.42                   0.9969295       -50.78722
1.424                  0.9891355       -51.62166
1.428                   0.981694       -52.28591
1.432                  0.9759342       -52.79794
1.436                  0.9729719        -53.2101
1.44                   0.9734712       -53.60257
1.444                  0.9774749       -54.06863
1.448                  0.9843609       -54.69552
1.452                  0.9929319       -55.54666
1.456                   1.001623       -56.65003
1.46                    1.008766        -57.9948
1.464                   1.012867       -59.53474
1.468                    1.01284       -61.19579
1.472                   1.008195       -62.88563
1.476                  0.9991467       -64.50451
1.48                   0.9866552       -65.95782
1.484                  0.9723619       -67.17156
1.488                  0.9584124       -68.11066
1.492                  0.9471441       -68.79739
1.496                  0.9406497        -69.3228
1.5                    0.9402916       -69.84227
1.504                  0.9462974       -70.55003
1.508                  0.9575784       -71.63891
1.512                  0.9718361       -73.26177
1.516                  0.9859021       -75.50893
1.52                   0.9961811       -78.40603
1.524                  0.9990748       -81.92594
1.528                   0.991317       -86.00474
1.532                  0.9702074       -90.55538
1.536                  0.9337584       -95.47515
1.54                   0.8807792       -100.6463
1.544                  0.8109161       -105.9276
1.548                  0.7246709       -111.1313
1.552                  0.6234258       -115.9695
1.556                  0.5095472       -119.9167
1.56                     0.38682       -121.8008
1.564                  0.2624263        -118.288
1.568                  0.1582971        -97.5822
1.572                  0.1498297       -48.66264
1.576                  0.2476114       -24.16906
1.58                   0.3713493       -19.50287
1.584                  0.4948756       -21.02613
1.588                  0.6101707       -24.86985
1.592                  0.7131646       -29.71781
1.596                  0.8013133       -34.99566
1.6                    0.8730819       -40.39542
1.604                  0.9278237       -45.71973
1.608                   0.965756        -50.8214
1.612                  0.9879487       -55.57772
1.616                  0.9962948       -59.88052
1.62                   0.9934422       -63.63554
1.624                  0.9826642       -66.76953
1.628                  0.9676425       -69.24419
1.632                  0.9521409       -71.07422
1.636                  0.9395723       -72.34264
1.64                   0.9325163       -73.20282
1.644                  0.9323164        -73.8581
1.648                   0.938906       -74.52099
1.652                  0.9509523       -75.36751
1.656                   0.966261       -76.50583
1.66                   0.9822979       -77.96853
1.664                  0.9966677       -79.72388
1.668                   1.007469        -81.6956
1.672                   1.013503       -83.78283
1.676                   1.014359       -85.87642
1.68                    1.010403       -87.87213
1.684                   1.002678       -89.68169
1.688                  0.9927453        -91.2433
1.692                  0.9824434       -92.53115
1.696                  0.9736081       -93.56204
1.7                    0.9677672       -94.39545
1.704                  0.9658739       -95.12446
1.708                  0.9681465       -95.85753
1.712                  0.9740575       -96.69584
1.716                  0.9824754       -97.71352
1.72                    0.991915       -98.94634
1.724                   1.000822       -100.3904
1.728                   1.007831       -102.0084
1.732                   1.011964       -103.7396
1.736                   1.012741       -105.5109
1.74                    1.010223       -107.2475
1.744                   1.004981       -108.8824
1.748                  0.9979939       -110.3655
1.752                  0.9904986       -111.6709
1.756                  0.9837908       -112.8024
1.76                   0.9790099       -113.7938
1.764                  0.9769414       -114.7045
1.768                   0.977881       -115.6078
1.772                  0.9815918       -116.5769
1.776                  0.9873684       -117.6705
1.78                    0.994186       -118.9228
1.784                   1.000894       -120.3396
1.788                   1.006417       -121.9006
1.792                   1.009916       -123.5644
1.796                   1.010909       -125.2771
1.8                     1.009324       -126.9802
1.804                   1.005498       -128.6187
1.808                   1.000114       -130.1489
1.812                  0.9941009       -131.5452
1.816                  0.9884762       -132.8041
1.82                   0.9841838       -133.9461
1.824                  0.9819321        -135.013
1.828                   0.982069       -136.0603
1.832                  0.9845263       -137.1467
1.836                   0.988841       -138.3231
1.84                   0.9942514       -139.6231
1.844                  0.9998404       -141.0588
1.848                   1.004695         -142.62
1.852                   1.008055       -144.2776
1.856                    1.00942       -145.9894
1.86                    1.008622       -147.7072
1.864                   1.005837       -149.3829
1.868                   1.001556       -150.9763
1.872                  0.9965047       -152.4605
1.876                  0.9915315       -153.8265
1.88                   0.9874663       -155.0854
1.884                  0.9849833       -156.2674
1.888                  0.9844827       -157.4162
1.892                  0.9860221       -158.5817
1.896                  0.9893115       -159.8098
1.9                    0.9937721       -161.1351
1.904                  0.9986452       -162.5742
1.908                   1.003125       -164.1248
1.912                   1.006492       -165.7667
1.916                   1.008223       -167.4665
1.92                    1.008066       -169.1827
1.924                   1.006075       -170.8721
1.928                   1.002592       -172.4961
1.932                  0.9982019        -174.026
1.936                  0.9936317       -175.4483
1.94                   0.9896407       -176.7667
1.944                  0.9868907       -178.0025
1.948                  0.9858332       -179.1913
1.952                  0.9866299        179.6233
1.956                  0.9891265        178.3979
1.96                   0.9928839        177.0974
1.964                  0.9972605        175.7005
1.968                   1.001526         174.203
1.972                   1.004982         172.618
1.976                   1.007079        170.9721
1.98                    1.007491        169.3014
1.984                   1.006167        167.6459
1.988                   1.003334        166.0434
1.992                  0.9994625        164.5242
1.996                  0.9951925         163.106
2                      0.9912325         161.791
2.004                  0.9882424        160.5645
2.008                   0.986721        159.3975
2.012                   0.986917        158.2509
2.016                  0.9887859        157.0831
2.02                   0.9919996        155.8576
2.024                  0.9960071        154.5495
2.028                   1.000132        153.1492
2.032                   1.003692        151.6635
2.036                   1.006104        150.1138
2.04                    1.006979        148.5322
2.044                   1.006181        146.9562
2.048                   1.003842        145.4233
2.052                   1.000346        143.9655
2.056                  0.9962669        142.6041
2.06                     0.99228         141.346
2.064                  0.9890522        140.1821
2.068                   0.987126        139.0879
2.072                  0.9868255        138.0276
2.076                  0.9881966        136.9607
2.08                   0.9909979         135.849
2.084                  0.9947471        134.6642
2.088                   0.998806         133.392
2.092                   1.002492        132.0342
2.096                   1.005191        130.6081
2.1                     1.006456        129.1425
2.104                   1.006075        127.6736
2.108                   1.004106        126.2393
2.112                   1.000864        124.8733
2.116                  0.9968791        123.6003
2.12                   0.9928098        122.4312
2.124                  0.9893383         121.361
2.128                  0.9870542         120.369
2.132                  0.9863488        119.4213
2.136                  0.9873439        118.4774
2.14                   0.9898667        117.4973
2.144                  0.9934822        116.4489
2.148                  0.9975699        115.3137
2.152                   1.001433        114.0897
2.156                   1.004418        112.7906
2.16                    1.006016        111.4436
2.164                   1.005948        110.0844
2.168                   1.004208         108.752
2.172                   1.001061         107.483
2.176                  0.9970129        106.3053
2.18                   0.9927269         105.234
2.184                  0.9889201        104.2677
2.188                  0.9862414        103.3879
2.192                  0.9851558        102.5617
2.196                   0.985857         101.747
2.2                    0.9882288        100.9007
2.204                  0.9918636        99.98638
2.208                   0.996135        98.98095
2.212                   1.000308        97.87834
2.216                   1.003663        96.68994
2.22                    1.005616        95.44215
2.224                    1.00581        94.17183
2.228                   1.004175        92.92079
2.232                   1.000939        91.72948
2.236                  0.9966036        90.63083
2.24                   0.9918642        89.64458
2.244                  0.9875068        88.77315
2.248                  0.9842736        87.99999
2.252                  0.9827312         87.2913
2.256                  0.9831624        86.60152
2.26                   0.9855078        85.88155
2.264                  0.9893701        85.08809
2.268                  0.9940827        84.19154
2.272                  0.9988255        83.18096
2.276                   1.002764        82.06539
2.28                    1.005188        80.87164
2.284                   1.005622        79.63993
2.288                   1.003909        78.41771
2.292                   1.000235        77.25295
2.296                  0.9951198          76.187
2.3                    0.9893406        75.24763
2.304                  0.9838237        74.44324
2.308                  0.9794918         73.7595
2.312                  0.9771014        73.15968
2.316                  0.9770964        72.58989
2.32                   0.9795111        71.98837
2.324                  0.9839482        71.29735
2.328                  0.9896403        70.47371
2.332                  0.9955754        69.49673
2.336                   1.000667        68.37075
2.34                    1.003925        67.12376
2.344                   1.004616        65.80283
2.348                   1.002376        64.46749
2.352                  0.9972839        63.18205