! TOUCHSTONE file generated by CST MICROWAVE STUDIO
! Date and time: Thu May 12 15:49:36 2022
! Project name: AppElm_antenne_dipole_FR4.cst
! Parameters = {L=34.92; e=0.035; f=2.45e+09; h=1.6; i=0.8; l1=4; lambda=122.449; ls=30; wl=1.7; ws=80}
! Header version: 2018
! Port assignment regex: !\s*Touchstone port\s*([0-9]+)\s*=\s*(CST MWS port|CST DS port)\s*([0-9]+|Zmin|Zmax)\s*\(\"(.*)\"\)(\s*mode\s*([0-9]+))?.*
! Touchstone port assignment:
! Touchstone port 1 = CST MWS port 1 ("")
# GHz S MA R 50
0                      0.9999608              -0
0.004                  0.9999605      -0.0524013
0.008                  0.9999598      -0.1048019
0.012                  0.9999585      -0.1572011
0.016                  0.9999567      -0.2095982
0.02                   0.9999544      -0.2619925
0.024                  0.9999515      -0.3143834
0.028                  0.9999482      -0.3667702
0.032                  0.9999443      -0.4191521
0.036                    0.99994      -0.4715286
0.04                   0.9999352      -0.5238991
0.044                  0.9999299      -0.5762629
0.048                  0.9999242      -0.6286194
0.052                   0.999918      -0.6809679
0.056                  0.9999114      -0.7333081
0.06                   0.9999043      -0.7856393
0.064                  0.9998968       -0.837961
0.068                  0.9998888      -0.8902726
0.072                  0.9998804      -0.9425739
0.076                  0.9998718      -0.9948642
0.08                   0.9998627       -1.047143
0.084                  0.9998533       -1.099411
0.088                  0.9998434       -1.151666
0.092                  0.9998332       -1.203909
0.096                  0.9998229       -1.256139
0.1                    0.9998121       -1.308357
0.104                   0.999801       -1.360562
0.108                  0.9997898       -1.412753
0.112                  0.9997783       -1.464931
0.116                  0.9997666       -1.517096
0.12                   0.9997547       -1.569248
0.124                  0.9997425       -1.621386
0.128                  0.9997302       -1.673511
0.132                   0.999718       -1.725622
0.136                  0.9997053       -1.777721
0.14                   0.9996928       -1.829807
0.144                    0.99968        -1.88188
0.148                  0.9996673       -1.933941
0.152                  0.9996544        -1.98599
0.156                  0.9996418       -2.038028
0.16                   0.9996289       -2.090055
0.164                  0.9996161       -2.142071
0.168                  0.9996035       -2.194077
0.172                  0.9995909       -2.246074
0.176                  0.9995784       -2.298063
0.18                    0.999566       -2.350043
0.184                  0.9995538       -2.402017
0.188                  0.9995417       -2.453984
0.192                    0.99953       -2.505946
0.196                  0.9995184       -2.557903
0.2                     0.999507       -2.609858
0.204                  0.9994958       -2.661809
0.208                   0.999485        -2.71376
0.212                  0.9994744       -2.765711
0.216                  0.9994642       -2.817662
0.22                   0.9994543       -2.869617
0.224                  0.9994447       -2.921575
0.228                  0.9994356       -2.973538
0.232                  0.9994268       -3.025508
0.236                  0.9994186       -3.077486
0.24                   0.9994106       -3.129473
0.244                  0.9994031       -3.181472
0.248                  0.9993962       -3.233484
0.252                  0.9993898        -3.28551
0.256                  0.9993838       -3.337552
0.26                   0.9993783       -3.389612
0.264                  0.9993733       -3.441692
0.268                   0.999369       -3.493793
0.272                   0.999365       -3.545918
0.276                  0.9993617       -3.598068
0.28                    0.999359       -3.650246
0.284                  0.9993569       -3.702452
0.288                  0.9993553       -3.754691
0.292                  0.9993543       -3.806962
0.296                  0.9993539       -3.859268
0.3                    0.9993541       -3.911612
0.304                  0.9993549       -3.963995
0.308                  0.9993564       -4.016419
0.312                  0.9993583       -4.068888
0.316                   0.999361       -4.121402
0.32                   0.9993643       -4.173964
0.324                  0.9993681       -4.226576
0.328                  0.9993725       -4.279241
0.332                  0.9993776       -4.331959
0.336                  0.9993831       -4.384735
0.34                   0.9993894       -4.437567
0.344                  0.9993962       -4.490462
0.348                  0.9994034        -4.54342
0.352                  0.9994114       -4.596442
0.356                  0.9994198       -4.649532
0.36                   0.9994288        -4.70269
0.364                  0.9994383       -4.755921
0.368                  0.9994483       -4.809223
0.372                  0.9994586       -4.862602
0.376                  0.9994696       -4.916057
0.38                   0.9994808       -4.969592
0.384                  0.9994927       -5.023207
0.388                  0.9995048       -5.076906
0.392                  0.9995174        -5.13069
0.396                  0.9995303       -5.184559
0.4                    0.9995434       -5.238517
0.404                   0.999557       -5.292564
0.408                  0.9995708       -5.346703
0.412                   0.999585       -5.400935
0.416                  0.9995993       -5.455261
0.42                   0.9996138       -5.509684
0.424                  0.9996284       -5.564204
0.428                  0.9996433       -5.618821
0.432                  0.9996583       -5.673539
0.436                  0.9996732       -5.728358
0.44                   0.9996884       -5.783279
0.444                  0.9997033       -5.838303
0.448                  0.9997185       -5.893431
0.452                  0.9997333       -5.948664
0.456                  0.9997483       -6.004003
0.46                   0.9997632       -6.059447
0.464                  0.9997778       -6.114999
0.468                  0.9997922       -6.170658
0.472                  0.9998065       -6.226426
0.476                  0.9998204       -6.282302
0.48                   0.9998342       -6.338286
0.484                  0.9998476       -6.394379
0.488                  0.9998607       -6.450581
0.492                  0.9998733       -6.506894
0.496                  0.9998855       -6.563314
0.5                    0.9998972       -6.619844
0.504                  0.9999085       -6.676482
0.508                  0.9999192       -6.733229
0.512                  0.9999295       -6.790084
0.516                  0.9999391       -6.847047
0.52                   0.9999482       -6.904117
0.524                  0.9999565       -6.961293
0.528                  0.9999643       -7.018575
0.532                  0.9999714       -7.075963
0.536                  0.9999777       -7.133455
0.54                   0.9999832       -7.191051
0.544                  0.9999881        -7.24875
0.548                   0.999992        -7.30655
0.552                  0.9999953        -7.36445
0.556                  0.9999978       -7.422449
0.56                   0.9999993       -7.480548
0.564                          1       -7.538742
0.568                  0.9999999       -7.597034
0.572                  0.9999987       -7.655419
0.576                  0.9999967       -7.713898
0.58                   0.9999938       -7.772467
0.584                  0.9999899       -7.831127
0.588                  0.9999851       -7.889878
0.592                  0.9999794       -7.948715
0.596                  0.9999728       -8.007637
0.6                    0.9999653       -8.066644
0.604                  0.9999566       -8.125736
0.608                  0.9999472       -8.184905
0.612                  0.9999368       -8.244157
0.616                  0.9999253       -8.303487
0.62                   0.9999131       -8.362894
0.624                  0.9998998       -8.422376
0.628                  0.9998859       -8.481931
0.632                  0.9998706       -8.541562
0.636                  0.9998548        -8.60126
0.64                    0.999838        -8.66103
0.644                  0.9998204       -8.720868
0.648                  0.9998019       -8.780774
0.652                  0.9997826       -8.840745
0.656                  0.9997626       -8.900781
0.66                   0.9997418        -8.96088
0.664                  0.9997203        -9.02104
0.668                  0.9996981       -9.081265
0.672                  0.9996751       -9.141549
0.676                  0.9996516       -9.201893
0.68                   0.9996274       -9.262296
0.684                  0.9996027       -9.322757
0.688                  0.9995774       -9.383277
0.692                  0.9995516       -9.443852
0.696                  0.9995254       -9.504487
0.7                    0.9994989       -9.565176
0.704                  0.9994718       -9.625926
0.708                  0.9994444        -9.68673
0.712                  0.9994167       -9.747589
0.716                  0.9993888       -9.808507
0.72                   0.9993608       -9.869482
0.724                  0.9993324       -9.930516
0.728                   0.999304       -9.991606
0.732                  0.9992756       -10.05276
0.736                  0.9992472       -10.11397
0.74                   0.9992186       -10.17524
0.744                  0.9991903       -10.23657
0.748                  0.9991621       -10.29797
0.752                   0.999134       -10.35943
0.756                  0.9991062       -10.42096
0.76                   0.9990786       -10.48255
0.764                  0.9990513       -10.54422
0.768                  0.9990245       -10.60596
0.772                  0.9989979       -10.66777
0.776                  0.9989719       -10.72965
0.78                   0.9989463       -10.79162
0.784                  0.9989214       -10.85367
0.788                  0.9988969        -10.9158
0.792                   0.998873       -10.97802
0.796                  0.9988499       -11.04033
0.8                    0.9988274       -11.10273
0.804                  0.9988057       -11.16523
0.808                  0.9987848       -11.22782
0.812                  0.9987647       -11.29052
0.816                  0.9987454       -11.35332
0.82                   0.9987271       -11.41624
0.824                  0.9987096       -11.47927
0.828                  0.9986929       -11.54241
0.832                  0.9986774       -11.60568
0.836                  0.9986629       -11.66907
0.84                   0.9986491        -11.7326
0.844                  0.9986365       -11.79625
0.848                  0.9986249       -11.86005
0.852                  0.9986144       -11.92399
0.856                  0.9986049       -11.98808
0.86                   0.9985966       -12.05232
0.864                  0.9985891       -12.11671
0.868                   0.998583       -12.18127
0.872                  0.9985777       -12.24599
0.876                  0.9985735       -12.31089
0.88                   0.9985704       -12.37596
0.884                  0.9985684       -12.44121
0.888                  0.9985674       -12.50664
0.892                  0.9985673       -12.57227
0.896                  0.9985684       -12.63809
0.9                    0.9985705        -12.7041
0.904                  0.9985734       -12.77033
0.908                  0.9985772       -12.83676
0.912                   0.998582        -12.9034
0.916                  0.9985877       -12.97027
0.92                   0.9985942       -13.03735
0.924                  0.9986016       -13.10466
0.928                  0.9986096       -13.17221
0.932                  0.9986183       -13.23999
0.936                  0.9986277       -13.30801
0.94                   0.9986377       -13.37628
0.944                  0.9986483       -13.44479
0.948                  0.9986596       -13.51355
0.952                  0.9986712       -13.58258
0.956                  0.9986831       -13.65186
0.96                   0.9986955       -13.72141
0.964                   0.998708       -13.79122
0.968                  0.9987209       -13.86131
0.972                  0.9987338       -13.93167
0.976                  0.9987469        -14.0023
0.98                   0.9987598       -14.07322
0.984                  0.9987728       -14.14442
0.988                  0.9987856        -14.2159
0.992                  0.9987983       -14.28768
0.996                  0.9988105       -14.35974
1                      0.9988224       -14.43209
1.004                   0.998834       -14.50474
1.008                  0.9988451       -14.57769
1.012                  0.9988554       -14.65093
1.016                  0.9988652       -14.72447
1.02                   0.9988742       -14.79831
1.024                  0.9988824       -14.87246
1.028                  0.9988896        -14.9469
1.032                  0.9988959       -15.02165
1.036                  0.9989011        -15.0967
1.04                   0.9989052       -15.17205
1.044                   0.998908        -15.2477
1.048                  0.9989096       -15.32368
1.052                  0.9989098       -15.39993
1.056                  0.9989085       -15.47652
1.06                   0.9989059       -15.55337
1.064                  0.9989015       -15.63055
1.068                  0.9988956         -15.708
1.072                  0.9988879       -15.78578
1.076                  0.9988786       -15.86387
1.08                   0.9988672       -15.94223
1.084                  0.9988541       -16.02088
1.088                   0.998839       -16.09984
1.092                  0.9988219       -16.17907
1.096                  0.9988028        -16.2586
1.1                    0.9987816       -16.33843
1.104                  0.9987582       -16.41856
1.108                  0.9987326       -16.49894
1.112                  0.9987048       -16.57959
1.116                  0.9986748       -16.66054
1.12                   0.9986425       -16.74177
1.124                   0.998608       -16.82326
1.128                   0.998571       -16.90503
1.132                  0.9985317       -16.98707
1.136                    0.99849       -17.06937
1.14                    0.998446       -17.15193
1.144                  0.9983997       -17.23475
1.148                  0.9983507       -17.31783
1.152                  0.9982996       -17.40116
1.156                  0.9982461       -17.48474
1.16                   0.9981901       -17.56857
1.164                  0.9981319       -17.65265
1.168                  0.9980711       -17.73697
1.172                  0.9980083       -17.82153
1.176                   0.997943       -17.90632
1.18                   0.9978755       -17.99136
1.184                  0.9978058       -18.07662
1.188                  0.9977338       -18.16212
1.192                  0.9976598       -18.24785
1.196                  0.9975836       -18.33381
1.2                    0.9975053       -18.41999
1.204                  0.9974252       -18.50639
1.208                   0.997343       -18.59302
1.212                   0.997259       -18.67987
1.216                  0.9971731       -18.76694
1.22                   0.9970855       -18.85423
1.224                  0.9969962       -18.94174
1.228                  0.9969052       -19.02946
1.232                  0.9968128       -19.11741
1.236                   0.996719       -19.20557
1.24                   0.9966236       -19.29396
1.244                  0.9965271       -19.38256
1.248                  0.9964292       -19.47139
1.252                  0.9963304       -19.56044
1.256                  0.9962304       -19.64971
1.26                   0.9961296        -19.7392
1.264                  0.9960279       -19.82893
1.268                  0.9959255       -19.91889
1.272                  0.9958224       -20.00908
1.276                  0.9957187        -20.0995
1.28                   0.9956146       -20.19016
1.284                  0.9955101       -20.28107
1.288                  0.9954053       -20.37223
1.292                  0.9953002       -20.46364
1.296                  0.9951953        -20.5553
1.3                    0.9950902       -20.64723
1.304                  0.9949852       -20.73942
1.308                  0.9948805       -20.83188
1.312                  0.9947759       -20.92463
1.316                  0.9946718       -21.01766
1.32                    0.994568       -21.11099
1.324                  0.9944649       -21.20461
1.328                  0.9943623       -21.29854
1.332                  0.9942604       -21.39279
1.336                  0.9941593       -21.48736
1.34                   0.9940589       -21.58226
1.344                  0.9939596        -21.6775
1.348                  0.9938611       -21.77309
1.352                  0.9937636       -21.86904
1.356                  0.9936672       -21.96536
1.36                    0.993572       -22.06205
1.364                  0.9934778       -22.15914
1.368                   0.993385       -22.25662
1.372                  0.9932932       -22.35451
1.376                  0.9932028       -22.45283
1.38                   0.9931135       -22.55157
1.384                  0.9930258       -22.65076
1.388                  0.9929391        -22.7504
1.392                   0.992854       -22.85051
1.396                    0.99277       -22.95109
1.4                    0.9926874       -23.05217
1.404                  0.9926059       -23.15375
1.408                  0.9925258       -23.25584
1.412                   0.992447       -23.35846
1.416                  0.9923694       -23.46161
1.42                   0.9922928       -23.56532
1.424                  0.9922175       -23.66959
1.428                  0.9921433       -23.77444
1.432                  0.9920698       -23.87987
1.436                  0.9919974       -23.98591
1.44                   0.9919259       -24.09256
1.444                  0.9918551       -24.19984
1.448                  0.9917849       -24.30776
1.452                  0.9917155       -24.41633
1.456                  0.9916463       -24.52556
1.46                   0.9915778       -24.63547
1.464                  0.9915093       -24.74607
1.468                  0.9914409       -24.85736
1.472                  0.9913726       -24.96937
1.476                  0.9913041        -25.0821
1.48                   0.9912353       -25.19557
1.484                  0.9911661       -25.30978
1.488                  0.9910963       -25.42475
1.492                  0.9910259       -25.54049
1.496                  0.9909545         -25.657
1.5                    0.9908818       -25.77431
1.504                  0.9908082       -25.89241
1.508                  0.9907329       -26.01132
1.512                  0.9906561       -26.13105
1.516                  0.9905775       -26.25161
1.52                   0.9904968         -26.373
1.524                  0.9904139       -26.49524
1.528                  0.9903288       -26.61833
1.532                   0.990241       -26.74228
1.536                  0.9901504       -26.86709
1.54                   0.9900569       -26.99278
1.544                    0.98996       -27.11935
1.548                  0.9898599       -27.24681
1.552                   0.989756       -27.37517
1.556                  0.9896484       -27.50442
1.56                   0.9895367       -27.63458
1.564                  0.9894207       -27.76565
1.568                  0.9893004       -27.89763
1.572                  0.9891753       -28.03053
1.576                  0.9890453       -28.16436
1.58                   0.9889103       -28.29911
1.584                  0.9887701       -28.43479
1.588                  0.9886241        -28.5714
1.592                  0.9884727       -28.70894
1.596                  0.9883152       -28.84742
1.6                    0.9881516       -28.98684
1.604                  0.9879818        -29.1272
1.608                  0.9878055       -29.26849
1.612                  0.9876226       -29.41073
1.616                  0.9874329       -29.55391
1.62                   0.9872359       -29.69804
1.624                  0.9870321        -29.8431
1.628                  0.9868206       -29.98912
1.632                  0.9866019       -30.13606
1.636                  0.9863754       -30.28396
1.64                   0.9861412       -30.43279
1.644                  0.9858989       -30.58257
1.648                  0.9856486       -30.73328
1.652                  0.9853902       -30.88493
1.656                  0.9851234       -31.03751
1.66                   0.9848482       -31.19104
1.664                  0.9845645       -31.34549
1.668                  0.9842721       -31.50088
1.672                  0.9839711        -31.6572
1.676                  0.9836612       -31.81445
1.68                   0.9833425       -31.97263
1.684                   0.983015       -32.13173
1.688                  0.9826782       -32.29177
1.692                  0.9823327       -32.45273
1.696                  0.9819779       -32.61461
1.7                    0.9816142       -32.77742
1.704                  0.9812413       -32.94115
1.708                  0.9808593       -33.10581
1.712                  0.9804682       -33.27139
1.716                  0.9800679        -33.4379
1.72                   0.9796585       -33.60533
1.724                    0.97924       -33.77368
1.728                  0.9788124       -33.94297
1.732                  0.9783758        -34.1132
1.736                  0.9779302       -34.28435
1.74                   0.9774757       -34.45644
1.744                  0.9770122       -34.62947
1.748                  0.9765398       -34.80345
1.752                  0.9760589       -34.97838
1.756                  0.9755691       -35.15425
1.76                   0.9750707        -35.3311
1.764                  0.9745638        -35.5089
1.768                  0.9740484       -35.68769
1.772                  0.9735245       -35.86746
1.776                  0.9729926       -36.04822
1.78                   0.9724523       -36.22998
1.784                  0.9719041       -36.41275
1.788                  0.9713479       -36.59655
1.792                  0.9707838       -36.78139
1.796                  0.9702121       -36.96727
1.8                    0.9696326       -37.15422
1.804                  0.9690456       -37.34224
1.808                  0.9684511       -37.53136
1.812                  0.9678493       -37.72159
1.816                  0.9672404       -37.91294
1.82                   0.9666242       -38.10545
1.824                   0.966001       -38.29912
1.828                   0.965371       -38.49397
1.832                   0.964734       -38.69004
1.836                  0.9640902       -38.88733
1.84                   0.9634399       -39.08588
1.844                  0.9627829       -39.28571
1.848                  0.9621193       -39.48685
1.852                  0.9614494       -39.68931
1.856                  0.9607728       -39.89313
1.86                   0.9600899       -40.09835
1.864                  0.9594007       -40.30498
1.868                  0.9587051       -40.51306
1.872                  0.9580032       -40.72262
1.876                  0.9572948        -40.9337
1.88                   0.9565801       -41.14632
1.884                   0.955859       -41.36053
1.888                  0.9551314       -41.57635
1.892                  0.9543974       -41.79383
1.896                  0.9536566       -42.01301
1.9                    0.9529093       -42.23391
1.904                  0.9521551       -42.45658
1.908                   0.951394       -42.68107
1.912                  0.9506259       -42.90741
1.916                  0.9498505       -43.13565
1.92                   0.9490676       -43.36582
1.924                  0.9482772       -43.59798
1.928                  0.9474791       -43.83215
1.932                  0.9466727       -44.06841
1.936                  0.9458582       -44.30678
1.94                   0.9450348       -44.54731
1.944                  0.9442028       -44.79005
1.948                  0.9433613       -45.03506
1.952                  0.9425102       -45.28237
1.956                  0.9416493       -45.53203
1.96                   0.9407779        -45.7841
1.964                  0.9398958       -46.03862
1.968                  0.9390025       -46.29566
1.972                  0.9380975       -46.55524
1.976                  0.9371804       -46.81742
1.98                   0.9362506       -47.08226
1.984                  0.9353075       -47.34983
1.988                  0.9343508       -47.62014
1.992                  0.9333798       -47.89325
1.996                  0.9323938       -48.16923
2                      0.9313923       -48.44814
2.004                  0.9303745          -48.73
2.008                  0.9293399       -49.01489
2.012                  0.9282879       -49.30284
2.016                  0.9272175       -49.59392
2.02                   0.9261281       -49.88816
2.024                   0.925019       -50.18564
2.028                  0.9238894       -50.48639
2.032                  0.9227386       -50.79045
2.036                  0.9215656       -51.09791
2.04                   0.9203696       -51.40879
2.044                  0.9191498       -51.72314
2.048                  0.9179055       -52.04103
2.052                  0.9166355        -52.3625
2.056                  0.9153391       -52.68759
2.06                   0.9140154       -53.01637
2.064                  0.9126634       -53.34887
2.068                  0.9112822       -53.68513
2.072                  0.9098708       -54.02522
2.076                  0.9084281       -54.36919
2.08                   0.9069533       -54.71705
2.084                  0.9054454       -55.06888
2.088                  0.9039034       -55.42472
2.092                  0.9023262       -55.78461
2.096                  0.9007128        -56.1486
2.1                    0.8990624       -56.51672
2.104                  0.8973736       -56.88904
2.108                  0.8956457       -57.26557
2.112                  0.8938772       -57.64639
2.116                  0.8920677       -58.03151
2.12                   0.8902157       -58.42099
2.124                  0.8883202       -58.81485
2.128                  0.8863804       -59.21316
2.132                  0.8843947       -59.61594
2.136                  0.8823628       -60.02324
2.14                   0.8802833       -60.43511
2.144                   0.878155       -60.85155
2.148                  0.8759773       -61.27265
2.152                  0.8737487       -61.69842
2.156                  0.8714686       -62.12889
2.16                   0.8691358       -62.56411
2.164                  0.8667493       -63.00413
2.168                  0.8643082       -63.44897
2.172                  0.8618115       -63.89867
2.176                  0.8592583       -64.35327
2.18                   0.8566476       -64.81282
2.184                  0.8539786       -65.27733
2.188                  0.8512503       -65.74686
2.192                  0.8484618       -66.22145
2.196                  0.8456122       -66.70115
2.2                    0.8427008       -67.18595
2.204                  0.8397268       -67.67593
2.208                  0.8366893       -68.17112
2.212                  0.8335876       -68.67155
2.216                  0.8304209       -69.17727
2.22                   0.8271885       -69.68832
2.224                  0.8238897       -70.20474
2.228                  0.8205239       -70.72656
2.232                  0.8170905       -71.25385
2.236                  0.8135887       -71.78664
2.24                   0.8100182       -72.32498
2.244                  0.8063782       -72.86889
2.248                  0.8026684       -73.41846
2.252                  0.7988883       -73.97372
2.256                  0.7950373       -74.53472
2.26                   0.7911153       -75.10151
2.264                  0.7871217       -75.67413
2.268                  0.7830562       -76.25266
2.272                  0.7789187       -76.83715
2.276                  0.7747088       -77.42768
2.28                   0.7704264       -78.02428
2.284                  0.7660712       -78.62702
2.288                  0.7616433       -79.23599
2.292                  0.7571425       -79.85123
2.296                  0.7525688       -80.47283
2.3                    0.7479221       -81.10088
2.304                  0.7432027       -81.73544
2.308                  0.7384105        -82.3766
2.312                  0.7335459       -83.02446
2.316                   0.728609       -83.67907
2.32                   0.7235999       -84.34056
2.324                  0.7185192       -85.00904
2.328                  0.7133671       -85.68457
2.332                   0.708144       -86.36729
2.336                  0.7028504       -87.05731
2.34                    0.697487       -87.75477
2.344                  0.6920542       -88.45976
2.348                  0.6865526       -89.17242
2.352                   0.680983       -89.89289