! TOUCHSTONE file generated by CST MICROWAVE STUDIO
! Date and time: Thu May 12 15:49:42 2022
! Project name: AppElm_antenne_dipole_FR4.cst
! Parameters = {L=48.5; e=0.035; f=2.45e+09; h=1.6; i=0.8; l1=4; lambda=122.449; ls=30; wl=1.7; ws=80}
! Header version: 2018
! Port assignment regex: !\s*Touchstone port\s*([0-9]+)\s*=\s*(CST MWS port|CST DS port)\s*([0-9]+|Zmin|Zmax)\s*\(\"(.*)\"\)(\s*mode\s*([0-9]+))?.*
! Touchstone port assignment:
! Touchstone port 1 = CST MWS port 1 ("")
# GHz S MA R 50
0                       0.997211              -0
0.004                  0.9972141     -0.05530748
0.008                  0.9972232      -0.1106393
0.012                  0.9972385      -0.1660198
0.016                  0.9972598      -0.2214729
0.02                   0.9972871      -0.2770223
0.024                  0.9973201      -0.3326915
0.028                  0.9973587      -0.3885032
0.032                  0.9974028      -0.4444797
0.036                  0.9974523      -0.5006424
0.04                   0.9975068      -0.5570123
0.044                  0.9975661      -0.6136089
0.048                  0.9976301      -0.6704513
0.052                  0.9976983      -0.7275576
0.056                  0.9977705      -0.7849442
0.06                   0.9978465      -0.8426268
0.064                  0.9979257      -0.9006199
0.068                   0.998008      -0.9589366
0.072                  0.9980928       -1.017588
0.076                    0.99818       -1.076586
0.08                    0.998269       -1.135937
0.084                  0.9983595       -1.195651
0.088                  0.9984511       -1.255732
0.092                  0.9985433       -1.316185
0.096                   0.998636       -1.377013
0.1                    0.9987284       -1.438218
0.104                  0.9988205       -1.499799
0.108                  0.9989115       -1.561754
0.112                  0.9990011        -1.62408
0.116                  0.9990891       -1.686772
0.12                   0.9991748       -1.749825
0.124                  0.9992581        -1.81323
0.128                  0.9993387       -1.876979
0.132                  0.9994158        -1.94106
0.136                  0.9994895       -2.005463
0.14                   0.9995593       -2.070173
0.144                  0.9996248       -2.135178
0.148                  0.9996859       -2.200461
0.152                  0.9997421       -2.266006
0.156                  0.9997934       -2.331796
0.16                   0.9998395       -2.397812
0.164                  0.9998801       -2.464036
0.168                  0.9999149       -2.530447
0.172                   0.999944       -2.597024
0.176                  0.9999672       -2.663748
0.18                   0.9999842       -2.730596
0.184                  0.9999952       -2.797546
0.188                  0.9999999       -2.864576
0.192                  0.9999985       -2.931664
0.196                  0.9999908       -2.998787
0.2                    0.9999771       -3.065923
0.204                  0.9999569       -3.133049
0.208                  0.9999307       -3.200144
0.212                  0.9998985       -3.267185
0.216                  0.9998605       -3.334152
0.22                   0.9998169       -3.401023
0.224                  0.9997677       -3.467778
0.228                  0.9997133       -3.534399
0.232                  0.9996536       -3.600865
0.236                  0.9995893        -3.66716
0.24                   0.9995203       -3.733265
0.244                   0.999447       -3.799167
0.248                  0.9993699        -3.86485
0.252                   0.999289         -3.9303
0.256                  0.9992049       -3.995505
0.26                   0.9991179       -4.060455
0.264                  0.9990282        -4.12514
0.268                  0.9989364       -4.189551
0.272                   0.998843       -4.253681
0.276                   0.998748       -4.317528
0.28                   0.9986522       -4.381084
0.284                  0.9985558       -4.444351
0.288                  0.9984592       -4.507326
0.292                   0.998363       -4.570011
0.296                  0.9982674       -4.632409
0.3                    0.9981731       -4.694523
0.304                  0.9980801        -4.75636
0.308                  0.9979891       -4.817929
0.312                  0.9979007       -4.879235
0.316                  0.9978148       -4.940292
0.32                    0.997732       -5.001112
0.324                  0.9976528       -5.061706
0.328                  0.9975774        -5.12209
0.332                  0.9975061       -5.182282
0.336                  0.9974394       -5.242297
0.34                   0.9973774       -5.302156
0.344                  0.9973204       -5.361877
0.348                  0.9972688       -5.421481
0.352                  0.9972227       -5.480991
0.356                  0.9971824       -5.540429
0.36                   0.9971481       -5.599819
0.364                  0.9971198       -5.659185
0.368                  0.9970977       -5.718553
0.372                  0.9970821       -5.777946
0.376                  0.9970727       -5.837393
0.38                   0.9970699       -5.896916
0.384                  0.9970735       -5.956545
0.388                  0.9970836       -6.016304
0.392                  0.9971002        -6.07622
0.396                  0.9971231       -6.136319
0.4                    0.9971523       -6.196627
0.404                  0.9971876        -6.25717
0.408                  0.9972289       -6.317972
0.412                  0.9972761       -6.379058
0.416                  0.9973289       -6.440451
0.42                   0.9973871       -6.502176
0.424                  0.9974503       -6.564253
0.428                  0.9975185       -6.626704
0.432                  0.9975912       -6.689548
0.436                  0.9976682       -6.752805
0.44                   0.9977491       -6.816493
0.444                  0.9978334       -6.880628
0.448                  0.9979209       -6.945224
0.452                  0.9980113       -7.010295
0.456                  0.9981039       -7.075855
0.46                   0.9981985       -7.141912
0.464                  0.9982947       -7.208477
0.468                  0.9983918       -7.275556
0.472                  0.9984897       -7.343155
0.476                  0.9985877       -7.411279
0.48                   0.9986855       -7.479928
0.484                  0.9987825       -7.549106
0.488                  0.9988782       -7.618811
0.492                  0.9989726       -7.689038
0.496                  0.9990649       -7.759786
0.5                    0.9991545       -7.831048
0.504                  0.9992414       -7.902815
0.508                  0.9993249       -7.975078
0.512                  0.9994046        -8.04783
0.516                  0.9994802       -8.121056
0.52                   0.9995514       -8.194741
0.524                  0.9996177       -8.268873
0.528                  0.9996788       -8.343434
0.532                  0.9997344       -8.418406
0.536                  0.9997842       -8.493773
0.54                   0.9998279       -8.569516
0.544                  0.9998654       -8.645611
0.548                  0.9998963       -8.722037
0.552                  0.9999204       -8.798772
0.556                  0.9999377       -8.875796
0.56                   0.9999481       -8.953082
0.564                  0.9999513       -9.030607
0.568                  0.9999472       -9.108346
0.572                   0.999936       -9.186276
0.576                  0.9999174       -9.264371
0.58                   0.9998915       -9.342608
0.584                  0.9998584       -9.420959
0.588                  0.9998184       -9.499402
0.592                  0.9997711       -9.577912
0.596                   0.999717       -9.656466
0.6                    0.9996562        -9.73504
0.604                  0.9995888       -9.813611
0.608                   0.999515       -9.892158
0.612                  0.9994352       -9.970658
0.616                  0.9993498       -10.04909
0.62                   0.9992586       -10.12745
0.624                  0.9991625        -10.2057
0.628                  0.9990615       -10.28383
0.632                   0.998956       -10.36182
0.636                  0.9988464       -10.43967
0.64                   0.9987333       -10.51736
0.644                  0.9986169       -10.59488
0.648                  0.9984976       -10.67222
0.652                  0.9983762       -10.74937
0.656                  0.9982528       -10.82632
0.66                    0.998128       -10.90308
0.664                  0.9980023       -10.97965
0.668                  0.9978762       -11.05601
0.672                  0.9977501       -11.13218
0.676                  0.9976246       -11.20815
0.68                   0.9975001       -11.28393
0.684                  0.9973772       -11.35954
0.688                  0.9972562       -11.43497
0.692                  0.9971377       -11.51024
0.696                  0.9970221       -11.58537
0.7                      0.99691       -11.66036
0.704                  0.9968015       -11.73524
0.708                  0.9966975       -11.81002
0.712                  0.9965979       -11.88472
0.716                  0.9965033       -11.95937
0.72                   0.9964142       -12.03399
0.724                  0.9963308       -12.10859
0.728                  0.9962532       -12.18322
0.732                  0.9961821       -12.25789
0.736                  0.9961176       -12.33263
0.74                   0.9960598       -12.40748
0.744                  0.9960089       -12.48246
0.748                  0.9959652       -12.55761
0.752                  0.9959287       -12.63295
0.756                  0.9958995       -12.70852
0.76                   0.9958779       -12.78435
0.764                  0.9958637       -12.86048
0.768                  0.9958569       -12.93694
0.772                  0.9958576       -13.01376
0.776                  0.9958655       -13.09098
0.78                   0.9958807       -13.16863
0.784                  0.9959029       -13.24674
0.788                  0.9959321       -13.32534
0.792                  0.9959678       -13.40447
0.796                  0.9960101       -13.48417
0.8                    0.9960585       -13.56444
0.804                  0.9961127       -13.64534
0.808                  0.9961723       -13.72688
0.812                  0.9962372        -13.8091
0.816                  0.9963068       -13.89201
0.82                   0.9963806       -13.97565
0.824                  0.9964582       -14.06004
0.828                  0.9965393       -14.14519
0.832                  0.9966232       -14.23112
0.836                  0.9967096       -14.31787
0.84                   0.9967976       -14.40543
0.844                  0.9968871       -14.49383
0.848                  0.9969773       -14.58307
0.852                  0.9970677       -14.67317
0.856                  0.9971577       -14.76413
0.86                   0.9972467       -14.85597
0.864                  0.9973342       -14.94867
0.868                  0.9974194       -15.04226
0.872                  0.9975021       -15.13672
0.876                  0.9975814       -15.23205
0.88                   0.9976569       -15.32825
0.884                   0.997728       -15.42531
0.888                  0.9977941       -15.52323
0.892                  0.9978547       -15.62198
0.896                  0.9979092       -15.72157
0.9                    0.9979573       -15.82198
0.904                  0.9979983       -15.92318
0.908                   0.998032       -16.02517
0.912                  0.9980578       -16.12792
0.916                  0.9980751       -16.23142
0.92                   0.9980839       -16.33563
0.924                  0.9980837       -16.44054
0.928                  0.9980741       -16.54612
0.932                  0.9980551       -16.65236
0.936                  0.9980261       -16.75921
0.94                    0.997987       -16.86665
0.944                  0.9979378       -16.97465
0.948                  0.9978781        -17.0832
0.952                   0.997808       -17.19224
0.956                  0.9977274       -17.30177
0.96                   0.9976362       -17.41174
0.964                  0.9975345       -17.52213
0.968                  0.9974224        -17.6329
0.972                  0.9972999       -17.74404
0.976                  0.9971671       -17.85551
0.98                   0.9970245       -17.96727
0.984                  0.9968718       -18.07932
0.988                  0.9967097       -18.19161
0.992                  0.9965383       -18.30413
0.996                   0.996358       -18.41684
1                      0.9961691       -18.52974
1.004                  0.9959719       -18.64279
1.008                   0.995767       -18.75597
1.012                   0.995555       -18.86926
1.016                   0.995336        -18.9827
1.02                   0.9951109       -19.09619
1.024                  0.9948799       -19.20976
1.028                  0.9946437       -19.32339
1.032                   0.994403       -19.43709
1.036                  0.9941582       -19.55083
1.04                   0.9939101       -19.66465
1.044                   0.993659        -19.7785
1.048                  0.9934058       -19.89243
1.052                  0.9931512       -20.00641
1.056                  0.9928957       -20.12044
1.06                     0.99264       -20.23456
1.064                  0.9923846       -20.34879
1.068                  0.9921304        -20.4631
1.072                  0.9918776       -20.57755
1.076                  0.9916273       -20.69213
1.08                   0.9913798       -20.80688
1.084                  0.9911357       -20.92184
1.088                  0.9908957       -21.03705
1.092                  0.9906602       -21.15251
1.096                  0.9904298       -21.26821
1.1                     0.990205        -21.3843
1.104                  0.9899861       -21.50074
1.108                  0.9897736       -21.61759
1.112                   0.989568       -21.73491
1.116                  0.9893695       -21.85269
1.12                   0.9891783       -21.97104
1.124                  0.9889949          -22.09
1.128                  0.9888194       -22.20957
1.132                  0.9886521       -22.32985
1.136                  0.9884928       -22.45088
1.14                    0.988342       -22.57271
1.144                  0.9881994        -22.6954
1.148                  0.9880651       -22.81899
1.152                   0.987939       -22.94355
1.156                   0.987821       -23.06914
1.16                   0.9877109       -23.19581
1.164                  0.9876084        -23.3236
1.168                  0.9875133       -23.45259
1.172                  0.9874253       -23.58282
1.176                  0.9873438       -23.71435
1.18                   0.9872686       -23.84724
1.184                  0.9871992       -23.98152
1.188                  0.9871349       -24.11726
1.192                  0.9870752       -24.25451
1.196                  0.9870194       -24.39331
1.2                     0.986967       -24.53372
1.204                  0.9869172       -24.67577
1.208                  0.9868692        -24.8195
1.212                  0.9868224       -24.96497
1.216                  0.9867757        -25.1122
1.22                   0.9867285       -25.26123
1.224                  0.9866798        -25.4121
1.228                  0.9866288       -25.56483
1.232                  0.9865744       -25.71946
1.236                   0.986516         -25.876
1.24                   0.9864522        -26.0345
1.244                  0.9863824       -26.19495
1.248                  0.9863054       -26.35738
1.252                  0.9862204        -26.5218
1.256                  0.9861263       -26.68822
1.26                   0.9860222       -26.85666
1.264                  0.9859069       -27.02711
1.268                  0.9857799       -27.19957
1.272                  0.9856397       -27.37406
1.276                  0.9854859       -27.55056
1.28                   0.9853171       -27.72907
1.284                  0.9851327       -27.90958
1.288                  0.9849319       -28.09208
1.292                  0.9847136       -28.27655
1.296                  0.9844774       -28.46298
1.3                     0.984222       -28.65136
1.304                   0.983947       -28.84166
1.308                  0.9836517       -29.03386
1.312                  0.9833355       -29.22793
1.316                  0.9829976       -29.42386
1.32                   0.9826377       -29.62161
1.324                  0.9822551       -29.82117
1.328                  0.9818495       -30.02249
1.332                  0.9814203       -30.22556
1.336                  0.9809675       -30.43034
1.34                   0.9804904       -30.63681
1.344                  0.9799891       -30.84492
1.348                  0.9794632       -31.05467
1.352                  0.9789127       -31.26601
1.356                  0.9783376       -31.47891
1.36                   0.9777378       -31.69335
1.364                  0.9771132       -31.90931
1.368                  0.9764643       -32.12675
1.372                   0.975791       -32.34565
1.376                  0.9750935         -32.566
1.38                   0.9743721       -32.78777
1.384                  0.9736272       -33.01094
1.388                   0.972859       -33.23551
1.392                  0.9720681       -33.46145
1.396                  0.9712549       -33.68875
1.4                    0.9704198       -33.91743
1.404                  0.9695636       -34.14746
1.408                  0.9686864       -34.37885
1.412                  0.9677892       -34.61161
1.416                  0.9668724       -34.84575
1.42                   0.9659367       -35.08127
1.424                  0.9649829        -35.3182
1.428                  0.9640116       -35.55656
1.432                  0.9630234       -35.79638
1.436                  0.9620191       -36.03768
1.44                   0.9609991       -36.28052
1.444                  0.9599647       -36.52491
1.448                   0.958916       -36.77093
1.452                  0.9578539       -37.01861
1.456                   0.956779       -37.26801
1.46                    0.955692        -37.5192
1.464                  0.9545933       -37.77225
1.468                  0.9534836       -38.02723
1.472                  0.9523633       -38.28423
1.476                  0.9512331       -38.54331
1.48                   0.9500932       -38.80458
1.484                  0.9489441       -39.06812
1.488                  0.9477857       -39.33404
1.492                  0.9466186       -39.60245
1.496                   0.945443       -39.87345
1.5                    0.9442587       -40.14717
1.504                  0.9430658       -40.42371
1.508                  0.9418641        -40.7032
1.512                  0.9406537       -40.98576
1.516                   0.939434       -41.27155
1.52                   0.9382048       -41.56067
1.524                  0.9369656       -41.85328
1.528                  0.9357158       -42.14952
1.532                  0.9344547       -42.44952
1.536                  0.9331814       -42.75345
1.54                   0.9318953       -43.06144
1.544                  0.9305951       -43.37365
1.548                  0.9292796       -43.69024
1.552                  0.9279479       -44.01135
1.556                  0.9265983       -44.33716
1.56                   0.9252297       -44.66778
1.564                    0.92384       -45.00341
1.568                  0.9224278       -45.34421
1.572                  0.9209913       -45.69031
1.576                  0.9195287       -46.04188
1.58                   0.9180375       -46.39906
1.584                  0.9165161       -46.76203
1.588                  0.9149619       -47.13093
1.592                  0.9133726       -47.50591
1.596                   0.911746       -47.88712
1.6                    0.9100791       -48.27472
1.604                  0.9083697       -48.66884
1.608                  0.9066149       -49.06963
1.612                   0.904812       -49.47723
1.616                   0.902958       -49.89178
1.62                   0.9010502        -50.3134
1.624                  0.8990852       -50.74223
1.628                  0.8970603        -51.1784
1.632                  0.8949722       -51.62203
1.636                  0.8928179       -52.07325
1.64                   0.8905938       -52.53216
1.644                  0.8882973       -52.99889
1.648                  0.8859246       -53.47353
1.652                  0.8834726       -53.95621
1.656                   0.880938       -54.44703
1.66                   0.8783175       -54.94607
1.664                  0.8756077       -55.45342
1.668                  0.8728054        -55.9692
1.672                  0.8699074        -56.4935
1.676                  0.8669101       -57.02638
1.68                   0.8638107       -57.56794
1.684                  0.8606056       -58.11826
1.688                  0.8572917        -58.6774
1.692                  0.8538661       -59.24546
1.696                  0.8503255       -59.82251
1.7                    0.8466671        -60.4086
1.704                  0.8428878       -61.00383
1.708                  0.8389848       -61.60825
1.712                  0.8349553       -62.22191
1.716                  0.8307966       -62.84492
1.72                    0.826506       -63.47733
1.724                  0.8220812       -64.11919
1.728                  0.8175197       -64.77058
1.732                  0.8128192       -65.43155
1.736                  0.8079774       -66.10222
1.74                   0.8029925       -66.78261
1.744                  0.7978623       -67.47282
1.748                  0.7925853       -68.17292
1.752                  0.7871595       -68.88298
1.756                  0.7815836       -69.60311
1.76                   0.7758561       -70.33336
1.764                  0.7699758       -71.07388
1.768                  0.7639415       -71.82472
1.772                  0.7577527         -72.586
1.776                   0.751408       -73.35785
1.78                   0.7449073       -74.14037
1.784                  0.7382499       -74.93371
1.788                  0.7314358       -75.73801
1.792                  0.7244646       -76.55343
1.796                  0.7173365       -77.38011
1.8                    0.7100518       -78.21826
1.804                   0.702611       -79.06804
1.808                  0.6950146        -79.9297
1.812                  0.6872635       -80.80343
1.816                  0.6793588       -81.68951
1.82                   0.6713017       -82.58817
1.824                  0.6630934       -83.49974
1.828                  0.6547359       -84.42452
1.832                  0.6462307       -85.36285
1.836                    0.63758        -86.3151
1.84                   0.6287859        -87.2817
1.844                   0.619851       -88.26306
1.848                   0.610778       -89.25967
1.852                  0.6015697       -90.27205
1.856                  0.5922293       -91.30077
1.86                   0.5827602       -92.34646
1.864                  0.5731659       -93.40979
1.868                  0.5634506       -94.49144
1.872                   0.553618       -95.59231
1.876                  0.5436728       -96.71317
1.88                   0.5336197       -97.85505
1.884                  0.5234634       -99.01896
1.888                  0.5132095        -100.206
1.892                  0.5028634       -101.4175
1.896                  0.4924311       -102.6548
1.9                    0.4819188       -103.9194
1.904                  0.4713334       -105.2128
1.908                  0.4606817        -106.537
1.912                  0.4499714       -107.8939
1.916                  0.4392105       -109.2856
1.92                   0.4284074       -110.7146
1.924                  0.4175713       -112.1834
1.928                  0.4067119       -113.6951
1.932                  0.3958396       -115.2526
1.936                  0.3849654       -116.8597
1.94                   0.3741014       -118.5201
1.944                  0.3632605       -120.2381
1.948                  0.3524565       -122.0184
1.952                  0.3417047       -123.8663
1.956                  0.3310215       -125.7874
1.96                   0.3204246        -127.788
1.964                  0.3099338        -129.875
1.968                  0.2995704       -132.0559
1.972                  0.2893578       -134.3388
1.976                   0.279322       -136.7325
1.98                   0.2694913       -139.2466
1.984                  0.2598971       -141.8909
1.988                  0.2505739        -144.676
1.992                  0.2415594       -147.6125
1.996                  0.2328951        -150.711
2                      0.2246261       -153.9817
2.004                  0.2168011       -157.4335
2.008                  0.2094723       -161.0737
2.012                  0.2026945       -164.9067
2.016                  0.1965246       -168.9331
2.02                   0.1910197       -173.1487
2.024                  0.1862358       -177.5431
2.028                  0.1822249        177.9006
2.032                   0.179033        173.2068
2.036                  0.1766967        168.4069
2.04                   0.1752409        163.5379
2.044                  0.1746773        158.6413
2.048                  0.1750023        153.7602
2.052                   0.176198        148.9371
2.056                  0.1782324        144.2108
2.06                   0.1810622         139.615
2.064                  0.1846345        135.1766
2.068                  0.1888905        130.9153
2.072                  0.1937678        126.8438
2.076                  0.1992031        122.9685
2.08                   0.2051337        119.2903
2.084                  0.2114998        115.8061
2.088                  0.2182449        112.5096
2.092                  0.2253164        109.3923
2.096                  0.2326662        106.4445
2.1                    0.2402504        103.6557
2.104                  0.2480293        101.0151
2.108                  0.2559673         98.5124
2.112                  0.2640322        96.13723
2.116                  0.2721955           93.88
2.12                   0.2804314        91.73169
2.124                  0.2887169        89.68389
2.128                  0.2970315        87.72887
2.132                  0.3053568        85.85956
2.136                  0.3136765        84.06945
2.14                   0.3219757        82.35267
2.144                  0.3302413        80.70383
2.148                  0.3384614        79.11808
2.152                  0.3466256          77.591
2.156                  0.3547242        76.11856
2.16                   0.3627488        74.69717
2.164                  0.3706918        73.32348
2.168                  0.3785463        71.99453
2.172                  0.3863063         70.7076
2.176                  0.3939665        69.46019
2.18                    0.401522         68.2501
2.184                  0.4089687        67.07525
2.188                  0.4163028        65.93379
2.192                  0.4235213        64.82402
2.196                  0.4306212         63.7444
2.2                    0.4376003         62.6935
2.204                  0.4444568           61.67
2.208                   0.451189        60.67274
2.212                  0.4577958        59.70061
2.216                  0.4642762        58.75261
2.22                   0.4706297         57.8278
2.224                   0.476856        56.92536
2.228                  0.4829552        56.04447
2.232                  0.4889275         55.1844
2.236                  0.4947734        54.34449
2.24                   0.5004936         53.5241
2.244                  0.5060892        52.72265
2.248                  0.5115613        51.93957
2.252                  0.5169115        51.17435
2.256                   0.522141        50.42654
2.26                   0.5272519        49.69566
2.264                   0.532246        48.98128
2.268                  0.5371254        48.28298
2.272                  0.5418922         47.6004
2.276                   0.546549        46.93315
2.28                   0.5510982        46.28088
2.284                  0.5555425        45.64324
2.288                  0.5598844        45.01992
2.292                  0.5641269        44.41058
2.296                  0.5682731         43.8149
2.3                    0.5723255        43.23261
2.304                  0.5762876        42.66338
2.308                  0.5801623        42.10692
2.312                  0.5839528        41.56296
2.316                  0.5876622         41.0312
2.32                   0.5912939        40.51135
2.324                   0.594851        40.00312
2.328                  0.5983369        39.50626
2.332                  0.6017546        39.02044
2.336                  0.6051075        38.54543
2.34                   0.6083988        38.08091
2.344                  0.6116314        37.62662
2.348                  0.6148088        37.18226
2.352                   0.617934        36.74755