! TOUCHSTONE file generated by CST MICROWAVE STUDIO
! Date and time: Thu May 12 15:49:37 2022
! Project name: AppElm_antenne_dipole_FR4.cst
! Parameters = {L=36.86; e=0.035; f=2.45e+09; h=1.6; i=0.8; l1=4; lambda=122.449; ls=30; wl=1.7; ws=80}
! Header version: 2018
! Port assignment regex: !\s*Touchstone port\s*([0-9]+)\s*=\s*(CST MWS port|CST DS port)\s*([0-9]+|Zmin|Zmax)\s*\(\"(.*)\"\)(\s*mode\s*([0-9]+))?.*
! Touchstone port assignment:
! Touchstone port 1 = CST MWS port 1 ("")
# GHz S MA R 50
0                      0.9999405              -0
0.004                  0.9999402     -0.05373784
0.008                  0.9999394       -0.107475
0.012                   0.999938      -0.1612108
0.016                  0.9999363      -0.2149445
0.02                   0.9999339      -0.2686755
0.024                  0.9999309      -0.3224031
0.028                  0.9999275      -0.3761267
0.032                  0.9999236      -0.4298454
0.036                  0.9999191      -0.4835589
0.04                   0.9999143      -0.5372664
0.044                  0.9999088      -0.5909673
0.048                  0.9999029       -0.644661
0.052                  0.9998965       -0.698347
0.056                  0.9998896      -0.7520246
0.06                   0.9998824      -0.8056934
0.064                  0.9998746      -0.8593528
0.068                  0.9998663      -0.9130024
0.072                  0.9998578      -0.9666416
0.076                  0.9998488        -1.02027
0.08                   0.9998394       -1.073888
0.084                  0.9998298       -1.127494
0.088                  0.9998196       -1.181088
0.092                  0.9998092        -1.23467
0.096                  0.9997983       -1.288239
0.1                    0.9997874       -1.341796
0.104                  0.9997759        -1.39534
0.108                  0.9997642       -1.448872
0.112                  0.9997524        -1.50239
0.116                  0.9997404       -1.555895
0.12                   0.9997282       -1.609387
0.124                  0.9997156       -1.662865
0.128                   0.999703       -1.716331
0.132                  0.9996903       -1.769784
0.136                  0.9996774       -1.823224
0.14                   0.9996644       -1.876652
0.144                  0.9996513       -1.930068
0.148                  0.9996382       -1.983471
0.152                  0.9996251       -2.036863
0.156                   0.999612       -2.090244
0.16                   0.9995988       -2.143615
0.164                  0.9995858       -2.196976
0.168                  0.9995729       -2.250327
0.172                  0.9995599        -2.30367
0.176                  0.9995472       -2.357006
0.18                   0.9995345       -2.410333
0.184                  0.9995221       -2.463655
0.188                  0.9995099       -2.516971
0.192                  0.9994978       -2.570284
0.196                   0.999486       -2.623593
0.2                    0.9994745       -2.676899
0.204                  0.9994633       -2.730205
0.208                  0.9994525       -2.783511
0.212                  0.9994417       -2.836819
0.216                  0.9994315       -2.890129
0.22                   0.9994217       -2.943444
0.224                  0.9994122       -2.996765
0.228                  0.9994031       -3.050093
0.232                  0.9993946       -3.103429
0.236                  0.9993865       -3.156777
0.24                   0.9993789       -3.210137
0.244                  0.9993718       -3.263511
0.248                  0.9993652         -3.3169
0.252                  0.9993591       -3.370308
0.256                  0.9993535       -3.423735
0.26                   0.9993486       -3.477184
0.264                  0.9993442       -3.530656
0.268                  0.9993405       -3.584154
0.272                  0.9993372       -3.637681
0.276                  0.9993346       -3.691237
0.28                   0.9993328       -3.744825
0.284                  0.9993314       -3.798448
0.288                  0.9993308       -3.852107
0.292                  0.9993308       -3.905805
0.296                  0.9993314       -3.959545
0.3                    0.9993326       -4.013329
0.304                  0.9993347       -4.067158
0.308                  0.9993373       -4.121035
0.312                  0.9993406       -4.174964
0.316                  0.9993445       -4.228946
0.32                   0.9993491       -4.282983
0.324                  0.9993544       -4.337078
0.328                  0.9993604       -4.391234
0.332                  0.9993669       -4.445453
0.336                  0.9993741       -4.499738
0.34                   0.9993819        -4.55409
0.344                  0.9993903       -4.608512
0.348                  0.9993993       -4.663008
0.352                   0.999409       -4.717578
0.356                  0.9994191       -4.772226
0.36                   0.9994299       -4.826952
0.364                  0.9994411       -4.881763
0.368                  0.9994529       -4.936656
0.372                  0.9994651       -4.991637
0.376                  0.9994779       -5.046706
0.38                    0.999491       -5.101866
0.384                  0.9995046       -5.157119
0.388                  0.9995186       -5.212467
0.392                   0.999533       -5.267912
0.396                  0.9995478       -5.323456
0.4                    0.9995627       -5.379101
0.404                   0.999578       -5.434847
0.408                  0.9995934         -5.4907
0.412                  0.9996093       -5.546656
0.416                  0.9996251       -5.602722
0.42                   0.9996413       -5.658895
0.424                  0.9996574        -5.71518
0.428                  0.9996736       -5.771576
0.432                  0.9996898       -5.828085
0.436                   0.999706       -5.884708
0.44                   0.9997224       -5.941445
0.444                  0.9997384         -5.9983
0.448                  0.9997543       -6.055271
0.452                  0.9997702       -6.112359
0.456                  0.9997858       -6.169566
0.46                   0.9998012       -6.226892
0.464                  0.9998162       -6.284337
0.468                   0.999831       -6.341902
0.472                  0.9998454       -6.399587
0.476                  0.9998594       -6.457391
0.48                   0.9998729       -6.515316
0.484                   0.999886        -6.57336
0.488                  0.9998985       -6.631524
0.492                  0.9999105       -6.689808
0.496                  0.9999219       -6.748211
0.5                    0.9999326       -6.806733
0.504                  0.9999426       -6.865372
0.508                   0.999952        -6.92413
0.512                  0.9999606       -6.983003
0.516                  0.9999685       -7.041992
0.52                   0.9999755       -7.101097
0.524                  0.9999817       -7.160315
0.528                  0.9999871       -7.219644
0.532                  0.9999914       -7.279087
0.536                  0.9999951       -7.338638
0.54                   0.9999977       -7.398299
0.544                  0.9999992       -7.458068
0.548                          1       -7.517941
0.552                  0.9999995       -7.577919
0.556                  0.9999981       -7.637999
0.56                   0.9999957        -7.69818
0.564                  0.9999922       -7.758461
0.568                  0.9999877       -7.818839
0.572                   0.999982       -7.879312
0.576                  0.9999753       -7.939879
0.58                   0.9999675       -8.000539
0.584                  0.9999586       -8.061288
0.588                  0.9999487       -8.122124
0.592                  0.9999376       -8.183047
0.596                  0.9999255       -8.244055
0.6                    0.9999123       -8.305146
0.604                  0.9998979       -8.366315
0.608                  0.9998827       -8.427565
0.612                  0.9998663       -8.488891
0.616                  0.9998489       -8.550292
0.62                   0.9998305       -8.611765
0.624                  0.9998112       -8.673312
0.628                  0.9997909       -8.734925
0.632                  0.9997696       -8.796611
0.636                  0.9997475        -8.85836
0.64                   0.9997243       -8.920177
0.644                  0.9997006       -8.982057
0.648                  0.9996759       -9.043999
0.652                  0.9996503       -9.106004
0.656                  0.9996241       -9.168068
0.66                   0.9995972       -9.230192
0.664                  0.9995697       -9.292371
0.668                  0.9995415       -9.354612
0.672                  0.9995128       -9.416909
0.676                  0.9994837       -9.479261
0.68                    0.999454       -9.541671
0.684                  0.9994239       -9.604137
0.688                  0.9993934       -9.666658
0.692                  0.9993628       -9.729236
0.696                  0.9993317        -9.79187
0.7                    0.9993006       -9.854561
0.704                  0.9992693       -9.917309
0.708                  0.9992378       -9.980114
0.712                  0.9992065       -10.04298
0.716                  0.9991751        -10.1059
0.72                   0.9991438       -10.16889
0.724                  0.9991126       -10.23194
0.728                  0.9990816       -10.29505
0.732                   0.999051       -10.35823
0.736                  0.9990207       -10.42148
0.74                   0.9989907       -10.48479
0.744                  0.9989612       -10.54818
0.748                  0.9989321       -10.61165
0.752                  0.9989037       -10.67519
0.756                  0.9988758       -10.73881
0.76                   0.9988487       -10.80252
0.764                  0.9988222       -10.86631
0.768                  0.9987964        -10.9302
0.772                  0.9987715       -10.99417
0.776                  0.9987476       -11.05825
0.78                   0.9987243       -11.12242
0.784                  0.9987022       -11.18671
0.788                  0.9986811        -11.2511
0.792                  0.9986609        -11.3156
0.796                  0.9986418       -11.38023
0.8                    0.9986238       -11.44498
0.804                  0.9986069       -11.50985
0.808                  0.9985912       -11.57486
0.812                  0.9985766       -11.64001
0.816                  0.9985633        -11.7053
0.82                   0.9985512       -11.77074
0.824                  0.9985403       -11.83633
0.828                  0.9985307       -11.90208
0.832                  0.9985223       -11.96799
0.836                  0.9985152       -12.03408
0.84                   0.9985095       -12.10034
0.844                   0.998505       -12.16678
0.848                  0.9985018       -12.23341
0.852                  0.9984997       -12.30023
0.856                  0.9984988       -12.36725
0.86                   0.9984992       -12.43448
0.864                  0.9985009       -12.50191
0.868                  0.9985038       -12.56956
0.872                  0.9985078       -12.63743
0.876                  0.9985127       -12.70553
0.88                   0.9985189       -12.77386
0.884                  0.9985261       -12.84243
0.888                  0.9985344       -12.91124
0.892                  0.9985435       -12.98031
0.896                  0.9985536       -13.04962
0.9                    0.9985645        -13.1192
0.904                  0.9985763       -13.18904
0.908                  0.9985887       -13.25915
0.912                  0.9986018       -13.32953
0.916                  0.9986156        -13.4002
0.92                   0.9986298       -13.47115
0.924                  0.9986446       -13.54238
0.928                  0.9986597       -13.61391
0.932                  0.9986752       -13.68574
0.936                  0.9986908       -13.75787
0.94                   0.9987066        -13.8303
0.944                  0.9987225       -13.90304
0.948                  0.9987383       -13.97609
0.952                  0.9987541       -14.04945
0.956                  0.9987696       -14.12314
0.96                   0.9987849       -14.19714
0.964                  0.9987997       -14.27146
0.968                   0.998814       -14.34611
0.972                  0.9988279       -14.42109
0.976                   0.998841       -14.49639
0.98                   0.9988533       -14.57203
0.984                  0.9988647       -14.64799
0.988                  0.9988752       -14.72429
0.992                  0.9988848       -14.80092
0.996                   0.998893       -14.87789
1                         0.9989       -14.95519
1.004                  0.9989058       -15.03282
1.008                  0.9989101       -15.11079
1.012                  0.9989129       -15.18909
1.016                  0.9989139       -15.26773
1.02                   0.9989134        -15.3467
1.024                  0.9989111       -15.42599
1.028                  0.9989068       -15.50562
1.032                  0.9989007       -15.58558
1.036                  0.9988924       -15.66588
1.04                   0.9988821       -15.74647
1.044                  0.9988697        -15.8274
1.048                  0.9988549       -15.90862
1.052                  0.9988378        -15.9902
1.056                  0.9988183       -16.07208
1.06                   0.9987965       -16.15429
1.064                  0.9987722        -16.2368
1.068                  0.9987452       -16.31961
1.072                  0.9987157       -16.40271
1.076                  0.9986836       -16.48613
1.08                   0.9986488       -16.56984
1.084                  0.9986113       -16.65385
1.088                  0.9985711       -16.73813
1.092                  0.9985281       -16.82269
1.096                  0.9984825       -16.90757
1.1                     0.998434       -16.99271
1.104                  0.9983828       -17.07814
1.108                  0.9983288       -17.16379
1.112                  0.9982719       -17.24977
1.116                  0.9982124       -17.33597
1.12                   0.9981501       -17.42244
1.124                   0.998085       -17.50915
1.128                  0.9980173       -17.59615
1.132                  0.9979469       -17.68338
1.136                  0.9978739       -17.77086
1.14                   0.9977984       -17.85858
1.144                  0.9977201       -17.94654
1.148                  0.9976396       -18.03474
1.152                  0.9975565       -18.12318
1.156                   0.997471       -18.21185
1.16                   0.9973833       -18.30074
1.164                  0.9972933       -18.38987
1.168                  0.9972012       -18.47922
1.172                   0.997107        -18.5688
1.176                  0.9970108        -18.6586
1.18                   0.9969126       -18.74862
1.184                  0.9968128       -18.83887
1.188                  0.9967112       -18.92933
1.192                   0.996608       -19.02002
1.196                  0.9965032       -19.11093
1.2                    0.9963971       -19.20207
1.204                  0.9962896       -19.29343
1.208                  0.9961811       -19.38501
1.212                  0.9960714       -19.47682
1.216                  0.9959607       -19.56886
1.22                   0.9958493       -19.66113
1.224                  0.9957372       -19.75364
1.228                  0.9956243       -19.84639
1.232                  0.9955111       -19.93937
1.236                  0.9953973       -20.03261
1.24                   0.9952836       -20.12609
1.244                  0.9951695       -20.21983
1.248                  0.9950553       -20.31384
1.252                  0.9949415       -20.40811
1.256                  0.9948279       -20.50265
1.26                   0.9947144       -20.59748
1.264                  0.9946014       -20.69259
1.268                  0.9944891         -20.788
1.272                  0.9943774       -20.88372
1.276                  0.9942664       -20.97975
1.28                   0.9941562        -21.0761
1.284                  0.9940471       -21.17278
1.288                   0.993939        -21.2698
1.292                  0.9938319       -21.36718
1.296                  0.9937261       -21.46492
1.3                    0.9936215       -21.56303
1.304                  0.9935184       -21.66152
1.308                  0.9934167       -21.76041
1.312                  0.9933164       -21.85971
1.316                  0.9932176       -21.95943
1.32                   0.9931204       -22.05958
1.324                  0.9930248       -22.16018
1.328                  0.9929308       -22.26123
1.332                  0.9928385       -22.36276
1.336                  0.9927478       -22.46478
1.34                   0.9926588        -22.5673
1.344                  0.9925715       -22.67033
1.348                  0.9924859       -22.77389
1.352                  0.9924018       -22.87799
1.356                  0.9923195       -22.98266
1.36                   0.9922386       -23.08789
1.364                  0.9921594       -23.19372
1.368                  0.9920816       -23.30014
1.372                  0.9920053       -23.40718
1.376                  0.9919303       -23.51486
1.38                   0.9918566       -23.62318
1.384                   0.991784       -23.73217
1.388                  0.9917126       -23.84183
1.392                  0.9916421       -23.95219
1.396                  0.9915725       -24.06325
1.4                    0.9915036       -24.17503
1.404                  0.9914355       -24.28756
1.408                  0.9913676       -24.40083
1.412                  0.9913002       -24.51486
1.416                  0.9912329       -24.62967
1.42                   0.9911656       -24.74528
1.424                  0.9910981       -24.86169
1.428                  0.9910302       -24.97892
1.432                  0.9909618       -25.09699
1.436                  0.9908927       -25.21589
1.44                   0.9908226       -25.33566
1.444                  0.9907514       -25.45629
1.448                  0.9906789        -25.5778
1.452                  0.9906046        -25.7002
1.456                  0.9905287       -25.82351
1.46                   0.9904506       -25.94773
1.464                  0.9903704       -26.07286
1.468                  0.9902876       -26.19894
1.472                  0.9902021       -26.32595
1.476                  0.9901135       -26.45391
1.48                   0.9900218       -26.58283
1.484                  0.9899264       -26.71271
1.488                  0.9898275       -26.84357
1.492                  0.9897244       -26.97541
1.496                  0.9896171       -27.10823
1.5                    0.9895054       -27.24204
1.504                  0.9893888       -27.37685
1.508                  0.9892672       -27.51266
1.512                  0.9891404       -27.64948
1.516                   0.989008        -27.7873
1.52                   0.9888698       -27.92614
1.524                  0.9887255       -28.06599
1.528                  0.9885752       -28.20686
1.532                  0.9884181       -28.34875
1.536                  0.9882544       -28.49167
1.54                   0.9880837        -28.6356
1.544                  0.9879057       -28.78057
1.548                  0.9877204       -28.92655
1.552                  0.9875275       -29.07355
1.556                  0.9873265       -29.22158
1.56                   0.9871174       -29.37064
1.564                  0.9869003       -29.52071
1.568                  0.9866747       -29.67181
1.572                  0.9864404       -29.82392
1.576                  0.9861972       -29.97706
1.58                    0.985945       -30.13121
1.584                  0.9856839       -30.28637
1.588                  0.9854132       -30.44254
1.592                  0.9851333       -30.59972
1.596                  0.9848438        -30.7579
1.6                    0.9845446       -30.91709
1.604                  0.9842357       -31.07729
1.608                  0.9839169       -31.23847
1.612                   0.983588       -31.40065
1.616                  0.9832493       -31.56382
1.62                   0.9829003       -31.72799
1.624                  0.9825411       -31.89314
1.628                  0.9821718       -32.05928
1.632                   0.981792        -32.2264
1.636                  0.9814022        -32.3945
1.64                    0.981002       -32.56359
1.644                  0.9805917       -32.73365
1.648                  0.9801709       -32.90469
1.652                    0.97974        -33.0767
1.656                  0.9792987       -33.24971
1.66                   0.9788473       -33.42369
1.664                  0.9783858       -33.59865
1.668                   0.977914       -33.77459
1.672                  0.9774324       -33.95152
1.676                  0.9769409       -34.12944
1.68                   0.9764394       -34.30835
1.684                  0.9759281       -34.48826
1.688                  0.9754072       -34.66917
1.692                  0.9748766       -34.85109
1.696                  0.9743366       -35.03403
1.7                    0.9737874       -35.21798
1.704                  0.9732288       -35.40298
1.708                  0.9726612       -35.58901
1.712                  0.9720846        -35.7761
1.716                  0.9714993       -35.96424
1.72                   0.9709052       -36.15347
1.724                  0.9703025        -36.3438
1.728                  0.9696915       -36.53522
1.732                  0.9690722       -36.72777
1.736                  0.9684448       -36.92147
1.74                   0.9678096       -37.11631
1.744                  0.9671662       -37.31234
1.748                  0.9665154       -37.50956
1.752                  0.9658569       -37.70801
1.756                  0.9651911        -37.9077
1.76                   0.9645177       -38.10866
1.764                  0.9638373       -38.31092
1.768                  0.9631499       -38.51449
1.772                  0.9624553       -38.71942
1.776                  0.9617538       -38.92574
1.78                   0.9610456       -39.13345
1.784                  0.9603307       -39.34262
1.788                   0.959609       -39.55326
1.792                  0.9588808       -39.76543
1.796                  0.9581459       -39.97913
1.8                    0.9574043       -40.19443
1.804                  0.9566563       -40.41134
1.808                  0.9559016       -40.62993
1.812                  0.9551402       -40.85022
1.816                  0.9543722       -41.07226
1.82                   0.9535976        -41.2961
1.824                  0.9528159       -41.52177
1.828                  0.9520274       -41.74932
1.832                  0.9512317        -41.9788
1.836                  0.9504288       -42.21027
1.84                   0.9496186       -42.44376
1.844                  0.9488007       -42.67933
1.848                   0.947975       -42.91703
1.852                  0.9471412       -43.15691
1.856                   0.946299       -43.39903
1.86                   0.9454482       -43.64342
1.864                  0.9445884       -43.89017
1.868                  0.9437192       -44.13931
1.872                  0.9428403       -44.39091
1.876                  0.9419514       -44.64502
1.88                   0.9410518       -44.90168
1.884                  0.9401412       -45.16098
1.888                  0.9392191       -45.42295
1.892                  0.9382848       -45.68769
1.896                  0.9373378       -45.95521
1.9                    0.9363779       -46.22559
1.904                   0.935404       -46.49889
1.908                  0.9344159       -46.77518
1.912                  0.9334124        -47.0545
1.916                  0.9323932       -47.33693
1.92                   0.9313575       -47.62252
1.924                  0.9303043       -47.91133
1.928                  0.9292332       -48.20341
1.932                  0.9281432       -48.49885
1.936                  0.9270334       -48.79768
1.94                    0.925903       -49.09998
1.944                  0.9247511        -49.4058
1.948                  0.9235768        -49.7152
1.952                  0.9223793       -50.02824
1.956                  0.9211574       -50.34498
1.96                     0.91991       -50.66548
1.964                  0.9186366       -50.98979
1.968                  0.9173357       -51.31798
1.972                  0.9160063       -51.65009
1.976                  0.9146475        -51.9862
1.98                   0.9132581       -52.32635
1.984                   0.911837        -52.6706
1.988                  0.9103831       -53.01899
1.992                  0.9088953        -53.3716
1.996                  0.9073722       -53.72847
2                       0.905813       -54.08964
2.004                  0.9042161       -54.45519
2.008                  0.9025805       -54.82517
2.012                  0.9009051        -55.1996
2.016                  0.8991885       -55.57855
2.02                   0.8974296       -55.96207
2.024                   0.895627       -56.35021
2.028                  0.8937797       -56.74302
2.032                  0.8918863       -57.14053
2.036                  0.8899456       -57.54281
2.04                   0.8879563        -57.9499
2.044                  0.8859173       -58.36182
2.048                  0.8838272       -58.77865
2.052                  0.8816847       -59.20043
2.056                  0.8794888       -59.62718
2.06                   0.8772381       -60.05897
2.064                  0.8749316       -60.49583
2.068                  0.8725678       -60.93779
2.072                  0.8701458       -61.38491
2.076                  0.8676642       -61.83724
2.08                   0.8651218        -62.2948
2.084                  0.8625176       -62.75765
2.088                  0.8598504       -63.22581
2.092                  0.8571191       -63.69935
2.096                  0.8543225       -64.17828
2.1                    0.8514597       -64.66267
2.104                  0.8485295       -65.15253
2.108                  0.8455309       -65.64793
2.112                  0.8424631       -66.14889
2.116                  0.8393246       -66.65547
2.12                   0.8361151       -67.16769
2.124                  0.8328333       -67.68563
2.128                  0.8294783        -68.2093
2.132                  0.8260494       -68.73875
2.136                  0.8225457       -69.27403
2.14                   0.8189664        -69.8152
2.144                  0.8153107       -70.36227
2.148                  0.8115781       -70.91532
2.152                  0.8077675       -71.47441
2.156                  0.8038789       -72.03955
2.16                   0.7999111       -72.61082
2.164                  0.7958639       -73.18827
2.168                  0.7917368       -73.77195
2.172                  0.7875291       -74.36193
2.176                  0.7832406       -74.95828
2.18                   0.7788709       -75.56101
2.184                  0.7744196       -76.17025
2.188                  0.7698865       -76.78603
2.192                  0.7652714       -77.40843
2.196                   0.760574       -78.03752
2.2                    0.7557944       -78.67338
2.204                  0.7509324        -79.3161
2.208                   0.745988       -79.96576
2.212                  0.7409614       -80.62243
2.216                  0.7358525       -81.28623
2.22                   0.7306616       -81.95725
2.224                  0.7253889       -82.63557
2.228                  0.7200347       -83.32134
2.232                  0.7145993       -84.01464
2.236                  0.7090832       -84.71558
2.24                   0.7034868       -85.42434
2.244                  0.6978107       -86.14099
2.248                  0.6920555        -86.8657
2.252                  0.6862219       -87.59861
2.256                  0.6803106       -88.33987
2.26                   0.6743224       -89.08965
2.264                  0.6682582       -89.84812
2.268                   0.662119       -90.61543
2.272                  0.6559058       -91.39182
2.276                  0.6496197       -92.17747
2.28                   0.6432619       -92.97257
2.284                  0.6368335       -93.77739
2.288                  0.6303361       -94.59212
2.292                  0.6237711       -95.41704
2.296                  0.6171397       -96.25237
2.3                    0.6104439       -97.09844
2.304                   0.603685       -97.95552
2.308                   0.596865       -98.82394
2.312                  0.5899859       -99.70397
2.316                  0.5830491        -100.596
2.32                   0.5760572       -101.5004
2.324                  0.5690121       -102.4176
2.328                  0.5619161       -103.3479
2.332                  0.5547716       -104.2918
2.336                   0.547581       -105.2497
2.34                   0.5403467       -106.2222
2.344                  0.5330717       -107.2097
2.348                  0.5257589       -108.2128
2.352                  0.5184109        -109.232