! TOUCHSTONE file generated by CST MICROWAVE STUDIO
! Date and time: Thu May 12 15:49:33 2022
! Project name: AppElm_antenne_dipole_FR4.cst
! Parameters = {L=29.1; e=0.035; f=2.45e+09; h=1.6; i=0.8; l1=4; lambda=122.449; ls=30; wl=1.7; ws=80}
! Header version: 2018
! Port assignment regex: !\s*Touchstone port\s*([0-9]+)\s*=\s*(CST MWS port|CST DS port)\s*([0-9]+|Zmin|Zmax)\s*\(\"(.*)\"\)(\s*mode\s*([0-9]+))?.*
! Touchstone port assignment:
! Touchstone port 1 = CST MWS port 1 ("")
# GHz S MA R 50
0                      0.9999784              -0
0.004                  0.9999777     -0.04956545
0.008                  0.9999756     -0.09912792
0.012                   0.999972      -0.1486844
0.016                  0.9999669       -0.198232
0.02                   0.9999605      -0.2477678
0.024                  0.9999525      -0.2972888
0.028                  0.9999434      -0.3467921
0.032                  0.9999328      -0.3962748
0.036                  0.9999208      -0.4457343
0.04                   0.9999073      -0.4951675
0.044                  0.9998928      -0.5445719
0.048                  0.9998768      -0.5939447
0.052                  0.9998595      -0.6432833
0.056                  0.9998411      -0.6925852
0.06                   0.9998212      -0.7418479
0.064                  0.9998005      -0.7910687
0.068                  0.9997784      -0.8402456
0.072                  0.9997553      -0.8893762
0.076                  0.9997311      -0.9384583
0.08                   0.9997057      -0.9874899
0.084                  0.9996796       -1.036469
0.088                  0.9996523       -1.085393
0.092                  0.9996243       -1.134262
0.096                  0.9995953       -1.183072
0.1                    0.9995656       -1.231823
0.104                   0.999535       -1.280512
0.108                  0.9995038        -1.32914
0.112                  0.9994719       -1.377704
0.116                  0.9994393       -1.426203
0.12                   0.9994063       -1.474636
0.124                  0.9993728       -1.523003
0.128                  0.9993388       -1.571302
0.132                  0.9993044       -1.619533
0.136                  0.9992696       -1.667696
0.14                   0.9992348        -1.71579
0.144                  0.9991994       -1.763815
0.148                  0.9991641       -1.811771
0.152                  0.9991286       -1.859658
0.156                  0.9990931       -1.907476
0.16                   0.9990576       -1.955225
0.164                  0.9990222       -2.002906
0.168                   0.998987        -2.05052
0.172                  0.9989519       -2.098067
0.176                  0.9989171       -2.145548
0.18                   0.9988826       -2.192965
0.184                  0.9988484       -2.240317
0.188                  0.9988147       -2.287607
0.192                  0.9987815       -2.334836
0.196                  0.9987488       -2.382006
0.2                    0.9987166       -2.429118
0.204                  0.9986852       -2.476173
0.208                  0.9986544       -2.523175
0.212                  0.9986243       -2.570125
0.216                  0.9985952       -2.617024
0.22                   0.9985669       -2.663876
0.224                  0.9985393       -2.710683
0.228                  0.9985128       -2.757447
0.232                  0.9984872       -2.804172
0.236                  0.9984628       -2.850858
0.24                   0.9984393       -2.897511
0.244                   0.998417       -2.944131
0.248                  0.9983959       -2.990724
0.252                  0.9983758       -3.037291
0.256                  0.9983571       -3.083835
0.26                   0.9983397       -3.130361
0.264                  0.9983234       -3.176871
0.268                  0.9983084       -3.223369
0.272                  0.9982949       -3.269857
0.276                  0.9982826       -3.316341
0.28                   0.9982718       -3.362824
0.284                  0.9982624       -3.409308
0.288                  0.9982544       -3.455798
0.292                  0.9982477       -3.502298
0.296                  0.9982427       -3.548811
0.3                    0.9982389       -3.595341
0.304                  0.9982367       -3.641893
0.308                   0.998236       -3.688468
0.312                  0.9982367       -3.735072
0.316                  0.9982388        -3.78171
0.32                   0.9982425       -3.828383
0.324                  0.9982476       -3.875096
0.328                  0.9982542       -3.921854
0.332                  0.9982622        -3.96866
0.336                  0.9982716       -4.015517
0.34                   0.9982824        -4.06243
0.344                  0.9982948       -4.109402
0.348                  0.9983085       -4.156437
0.352                  0.9983235       -4.203539
0.356                  0.9983398       -4.250711
0.36                   0.9983574       -4.297957
0.364                  0.9983764        -4.34528
0.368                  0.9983965       -4.392685
0.372                   0.998418       -4.440173
0.376                  0.9984406       -4.487748
0.38                   0.9984644       -4.535415
0.384                  0.9984892       -4.583176
0.388                  0.9985151       -4.631034
0.392                  0.9985422        -4.67899
0.396                  0.9985701       -4.727049
0.4                     0.998599       -4.775215
0.404                  0.9986286       -4.823489
0.408                  0.9986593       -4.871873
0.412                  0.9986907        -4.92037
0.416                  0.9987229       -4.968982
0.42                   0.9987556       -5.017713
0.424                  0.9987891       -5.066562
0.428                  0.9988231       -5.115534
0.432                  0.9988577       -5.164628
0.436                  0.9988927       -5.213848
0.44                   0.9989281       -5.263194
0.444                  0.9989638       -5.312669
0.448                  0.9989998       -5.362274
0.452                  0.9990361       -5.412008
0.456                  0.9990725       -5.461875
0.46                    0.999109       -5.511873
0.464                  0.9991455       -5.562005
0.468                   0.999182        -5.61227
0.472                  0.9992184       -5.662669
0.476                  0.9992547       -5.713204
0.48                   0.9992907       -5.763872
0.484                  0.9993265       -5.814675
0.488                  0.9993619       -5.865613
0.492                   0.999397       -5.916685
0.496                  0.9994315       -5.967891
0.5                    0.9994655        -6.01923
0.504                   0.999499       -6.070702
0.508                  0.9995319       -6.122306
0.512                   0.999564       -6.174041
0.516                  0.9995954       -6.225905
0.52                    0.999626       -6.277899
0.524                  0.9996556       -6.330018
0.528                  0.9996845       -6.382265
0.532                  0.9997122       -6.434635
0.536                   0.999739       -6.487129
0.54                   0.9997647       -6.539742
0.544                  0.9997894       -6.592476
0.548                  0.9998128       -6.645325
0.552                   0.999835       -6.698289
0.556                   0.999856       -6.751367
0.56                   0.9998757       -6.804553
0.564                  0.9998941       -6.857848
0.568                  0.9999111       -6.911248
0.572                  0.9999267        -6.96475
0.576                  0.9999409       -7.018353
0.58                   0.9999536       -7.072054
0.584                  0.9999649       -7.125847
0.588                  0.9999745       -7.179735
0.592                  0.9999827        -7.23371
0.596                  0.9999893       -7.287771
0.6                    0.9999943       -7.341915
0.604                  0.9999978       -7.396137
0.608                  0.9999997       -7.450438
0.612                          1       -7.504811
0.616                  0.9999986       -7.559255
0.62                   0.9999955       -7.613768
0.624                  0.9999909       -7.668344
0.628                  0.9999847       -7.722979
0.632                  0.9999769       -7.777674
0.636                  0.9999673       -7.832424
0.64                   0.9999562       -7.887225
0.644                  0.9999434       -7.942074
0.648                  0.9999291       -7.996969
0.652                  0.9999131       -8.051907
0.656                  0.9998957       -8.106884
0.66                   0.9998767       -8.161897
0.664                  0.9998562       -8.216942
0.668                  0.9998341        -8.27202
0.672                  0.9998106       -8.327125
0.676                  0.9997858       -8.382253
0.68                   0.9997595       -8.437405
0.684                  0.9997317       -8.492578
0.688                  0.9997028       -8.547766
0.692                  0.9996725       -8.602969
0.696                   0.999641       -8.658185
0.7                    0.9996083       -8.713412
0.704                  0.9995742       -8.768646
0.708                  0.9995393       -8.823887
0.712                  0.9995032       -8.879131
0.716                  0.9994662       -8.934377
0.72                    0.999428       -8.989625
0.724                  0.9993891       -9.044871
0.728                  0.9993493       -9.100117
0.732                  0.9993087       -9.155356
0.736                  0.9992674       -9.210593
0.74                   0.9992254       -9.265823
0.744                  0.9991827       -9.321046
0.748                  0.9991396       -9.376263
0.752                  0.9990958       -9.431472
0.756                  0.9990518       -9.486672
0.76                   0.9990073       -9.541864
0.764                  0.9989626       -9.597047
0.768                  0.9989177       -9.652221
0.772                  0.9988726       -9.707386
0.776                  0.9988274       -9.762545
0.78                   0.9987822       -9.817694
0.784                   0.998737       -9.872837
0.788                  0.9986919       -9.927974
0.792                  0.9986471       -9.983106
0.796                  0.9986024       -10.03823
0.8                    0.9985581       -10.09336
0.804                  0.9985141       -10.14848
0.808                  0.9984706       -10.20361
0.812                  0.9984276       -10.25874
0.816                  0.9983852       -10.31387
0.82                   0.9983434       -10.36901
0.824                  0.9983023       -10.42415
0.828                   0.998262       -10.47931
0.832                  0.9982224       -10.53448
0.836                  0.9981839       -10.58967
0.84                   0.9981462       -10.64488
0.844                  0.9981095       -10.70011
0.848                  0.9980738       -10.75537
0.852                  0.9980393       -10.81066
0.856                  0.9980059       -10.86597
0.86                   0.9979737       -10.92133
0.864                  0.9979428       -10.97672
0.868                  0.9979133       -11.03216
0.872                  0.9978849       -11.08765
0.876                   0.997858       -11.14319
0.88                   0.9978325       -11.19878
0.884                  0.9978084       -11.25443
0.888                  0.9977859       -11.31015
0.892                  0.9977649       -11.36593
0.896                  0.9977453       -11.42179
0.9                    0.9977275       -11.47773
0.904                  0.9977111       -11.53375
0.908                  0.9976964       -11.58986
0.912                  0.9976834       -11.64606
0.916                  0.9976719       -11.70236
0.92                   0.9976622       -11.75876
0.924                  0.9976541       -11.81526
0.928                  0.9976477       -11.87188
0.932                   0.997643       -11.92862
0.936                  0.9976399       -11.98547
0.94                   0.9976386       -12.04246
0.944                  0.9976388       -12.09957
0.948                  0.9976408       -12.15683
0.952                  0.9976445       -12.21422
0.956                  0.9976497       -12.27177
0.96                   0.9976566       -12.32946
0.964                   0.997665       -12.38732
0.968                  0.9976751       -12.44533
0.972                  0.9976866       -12.50351
0.976                  0.9976998       -12.56187
0.98                   0.9977144        -12.6204
0.984                  0.9977305       -12.67912
0.988                  0.9977478       -12.73801
0.992                  0.9977668        -12.7971
0.996                  0.9977869       -12.85639
1                      0.9978083       -12.91588
1.004                   0.997831       -12.97557
1.008                  0.9978548       -13.03547
1.012                  0.9978799       -13.09558
1.016                   0.997906       -13.15591
1.02                   0.9979331       -13.21646
1.024                  0.9979611       -13.27724
1.028                  0.9979901       -13.33824
1.032                  0.9980198       -13.39948
1.036                  0.9980504       -13.46095
1.04                   0.9980816       -13.52266
1.044                  0.9981135       -13.58461
1.048                  0.9981458       -13.64679
1.052                  0.9981787       -13.70927
1.056                  0.9982121       -13.77195
1.06                   0.9982457       -13.83489
1.064                  0.9982795       -13.89809
1.068                  0.9983136       -13.96155
1.072                  0.9983477       -14.02526
1.076                   0.998382       -14.08925
1.08                    0.998416       -14.15348
1.084                    0.99845       -14.21798
1.088                  0.9984836       -14.28279
1.092                  0.9985171       -14.34781
1.096                    0.99855       -14.41311
1.1                    0.9985826       -14.47871
1.104                  0.9986146       -14.54452
1.108                  0.9986459       -14.61067
1.112                  0.9986766       -14.67703
1.116                  0.9987063       -14.74372
1.12                   0.9987353       -14.81065
1.124                  0.9987632       -14.87783
1.128                    0.99879       -14.94529
1.132                  0.9988158       -15.01303
1.136                  0.9988404       -15.08104
1.14                   0.9988638       -15.14931
1.144                  0.9988857       -15.21784
1.148                  0.9989062       -15.28665
1.152                  0.9989253       -15.35572
1.156                  0.9989428       -15.42505
1.16                   0.9989586       -15.49464
1.164                  0.9989727       -15.56449
1.168                  0.9989851       -15.63459
1.172                  0.9989956       -15.70496
1.176                  0.9990042       -15.77557
1.18                   0.9990111       -15.84644
1.184                  0.9990157       -15.91755
1.188                  0.9990183        -15.9889
1.192                  0.9990188        -16.0605
1.196                  0.9990173       -16.13234
1.2                    0.9990135       -16.20441
1.204                  0.9990074       -16.27672
1.208                   0.998999       -16.34926
1.212                  0.9989883       -16.42203
1.216                  0.9989753       -16.49502
1.22                     0.99896       -16.56824
1.224                  0.9989422       -16.64166
1.228                  0.9989219       -16.71531
1.232                  0.9988992       -16.78916
1.236                  0.9988742       -16.86322
1.24                   0.9988465       -16.93748
1.244                  0.9988164       -17.01195
1.248                  0.9987838       -17.08661
1.252                  0.9987486       -17.16146
1.256                   0.998711       -17.23651
1.26                    0.998671       -17.31173
1.264                  0.9986283       -17.38715
1.268                  0.9985832       -17.46274
1.272                  0.9985358        -17.5385
1.276                  0.9984857       -17.61444
1.28                   0.9984333       -17.69055
1.284                  0.9983785       -17.76682
1.288                  0.9983214       -17.84325
1.292                  0.9982619       -17.91984
1.296                     0.9982        -17.9966
1.3                    0.9981359       -18.07349
1.304                  0.9980696       -18.15055
1.308                  0.9980011       -18.22775
1.312                  0.9979304       -18.30509
1.316                  0.9978577       -18.38258
1.32                   0.9977828        -18.4602
1.324                  0.9977061       -18.53797
1.328                  0.9976274       -18.61587
1.332                  0.9975468        -18.6939
1.336                  0.9974645       -18.77206
1.34                   0.9973804       -18.85036
1.344                  0.9972947       -18.92878
1.348                  0.9972074       -19.00734
1.352                  0.9971187       -19.08602
1.356                  0.9970284       -19.16482
1.36                   0.9969368       -19.24375
1.364                  0.9968439        -19.3228
1.368                  0.9967498       -19.40198
1.372                  0.9966546       -19.48128
1.376                  0.9965583       -19.56071
1.38                   0.9964613       -19.64026
1.384                  0.9963633       -19.71993
1.388                  0.9962644       -19.79974
1.392                  0.9961649       -19.87967
1.396                  0.9960648       -19.95973
1.4                    0.9959643       -20.03992
1.404                  0.9958633       -20.12023
1.408                  0.9957621       -20.20069
1.412                  0.9956604       -20.28128
1.416                  0.9955588       -20.36201
1.42                    0.995457       -20.44288
1.424                  0.9953554        -20.5239
1.428                  0.9952538       -20.60506
1.432                  0.9951525       -20.68638
1.436                  0.9950514       -20.76785
1.44                   0.9949508       -20.84948
1.444                  0.9948507       -20.93127
1.448                  0.9947511       -21.01324
1.452                  0.9946521       -21.09537
1.456                  0.9945539       -21.17769
1.46                   0.9944565       -21.26018
1.464                    0.99436       -21.34287
1.468                  0.9942645       -21.42575
1.472                    0.99417       -21.50883
1.476                  0.9940766       -21.59211
1.48                   0.9939843       -21.67561
1.484                  0.9938932       -21.75933
1.488                  0.9938035       -21.84327
1.492                  0.9937151       -21.92745
1.496                  0.9936282       -22.01187
1.5                    0.9935426       -22.09653
1.504                  0.9934587       -22.18145
1.508                  0.9933763       -22.26664
1.512                  0.9932954       -22.35209
1.516                  0.9932162       -22.43782
1.52                   0.9931388       -22.52385
1.524                   0.993063       -22.61016
1.528                  0.9929889       -22.69678
1.532                  0.9929167       -22.78372
1.536                   0.992846       -22.87098
1.54                   0.9927773       -22.95856
1.544                  0.9927103       -23.04649
1.548                  0.9926451       -23.13477
1.552                  0.9925818        -23.2234
1.556                  0.9925202        -23.3124
1.56                   0.9924603       -23.40177
1.564                  0.9924023       -23.49154
1.568                   0.992346       -23.58169
1.572                  0.9922915       -23.67226
1.576                  0.9922386       -23.76323
1.58                   0.9921874       -23.85464
1.584                  0.9921378       -23.94647
1.588                  0.9920898       -24.03874
1.592                  0.9920435       -24.13147
1.596                  0.9919985       -24.22466
1.6                     0.991955       -24.31833
1.604                  0.9919127       -24.41247
1.608                  0.9918719        -24.5071
1.612                  0.9918323       -24.60223
1.616                  0.9917939       -24.69787
1.62                   0.9917564       -24.79403
1.624                    0.99172       -24.89071
1.628                  0.9916845       -24.98792
1.632                  0.9916499       -25.08569
1.636                  0.9916159         -25.184
1.64                   0.9915826       -25.28287
1.644                  0.9915497       -25.38232
1.648                  0.9915173       -25.48234
1.652                  0.9914851       -25.58295
1.656                  0.9914531       -25.68415
1.66                   0.9914212       -25.78595
1.664                  0.9913891       -25.88836
1.668                   0.991357       -25.99139
1.672                  0.9913244       -26.09504
1.676                  0.9912914       -26.19932
1.68                   0.9912579       -26.30423
1.684                  0.9912235       -26.40979
1.688                  0.9911883         -26.516
1.692                  0.9911521       -26.62287
1.696                  0.9911148       -26.73039
1.7                    0.9910762       -26.83859
1.704                  0.9910359       -26.94746
1.708                  0.9909943         -27.057
1.712                  0.9909508       -27.16722
1.716                  0.9909054       -27.27814
1.72                    0.990858       -27.38974
1.724                  0.9908084       -27.50204
1.728                  0.9907565       -27.61504
1.732                  0.9907018       -27.72875
1.736                  0.9906446       -27.84316
1.74                   0.9905846       -27.95827
1.744                  0.9905215       -28.07411
1.748                  0.9904554       -28.19065
1.752                  0.9903859       -28.30791
1.756                   0.990313        -28.4259
1.76                   0.9902365        -28.5446
1.764                  0.9901563       -28.66402
1.768                  0.9900721       -28.78418
1.772                  0.9899839       -28.90506
1.776                  0.9898914       -29.02666
1.78                   0.9897947       -29.14899
1.784                  0.9896935       -29.27204
1.788                  0.9895877       -29.39583
1.792                   0.989477       -29.52035
1.796                  0.9893616       -29.64558
1.8                    0.9892411       -29.77155
1.804                  0.9891155       -29.89825
1.808                  0.9889845       -30.02567
1.812                  0.9888482       -30.15382
1.816                  0.9887063       -30.28269
1.82                   0.9885588       -30.41228
1.824                  0.9884056        -30.5426
1.828                  0.9882466       -30.67364
1.832                  0.9880816       -30.80539
1.836                  0.9879105       -30.93786
1.84                   0.9877333       -31.07105
1.844                  0.9875499       -31.20495
1.848                  0.9873602       -31.33957
1.852                  0.9871642       -31.47489
1.856                  0.9869615       -31.61092
1.86                   0.9867525       -31.74765
1.864                  0.9865368       -31.88509
1.868                  0.9863144       -32.02322
1.872                  0.9860853       -32.16206
1.876                  0.9858494       -32.30159
1.88                   0.9856068       -32.44182
1.884                  0.9853572       -32.58274
1.888                  0.9851009       -32.72434
1.892                  0.9848376       -32.86665
1.896                  0.9845673       -33.00963
1.9                    0.9842902        -33.1533
1.904                   0.984006       -33.29764
1.908                   0.983715       -33.44267
1.912                  0.9834168       -33.58839
1.916                  0.9831119       -33.73478
1.92                   0.9827998       -33.88184
1.924                   0.982481       -34.02958
1.928                  0.9821551         -34.178
1.932                  0.9818225        -34.3271
1.936                  0.9814828       -34.47686
1.94                   0.9811363       -34.62731
1.944                   0.980783       -34.77843
1.948                   0.980423       -34.93022
1.952                  0.9800564       -35.08269
1.956                  0.9796829       -35.23584
1.96                   0.9793029       -35.38966
1.964                  0.9789163       -35.54417
1.968                  0.9785234       -35.69936
1.972                  0.9781241       -35.85523
1.976                  0.9777183       -36.01179
1.98                   0.9773063       -36.16904
1.984                   0.976888       -36.32699
1.988                  0.9764638       -36.48563
1.992                  0.9760334       -36.64498
1.996                  0.9755973       -36.80503
2                      0.9751552        -36.9658
2.004                  0.9747073       -37.12729
2.008                  0.9742537        -37.2895
2.012                  0.9737946       -37.45244
2.016                  0.9733301       -37.61613
2.02                   0.9728602       -37.78056
2.024                  0.9723849       -37.94574
2.028                  0.9719045       -38.11169
2.032                  0.9714189       -38.27841
2.036                  0.9709283       -38.44591
2.04                   0.9704329       -38.61421
2.044                  0.9699328        -38.7833
2.048                  0.9694277       -38.95322
2.052                  0.9689181       -39.12396
2.056                   0.968404       -39.29554
2.06                   0.9678853       -39.46798
2.064                  0.9673624       -39.64128
2.068                  0.9668352       -39.81546
2.072                  0.9663037       -39.99054
2.076                  0.9657682       -40.16653
2.08                   0.9652286       -40.34345
2.084                   0.964685       -40.52132
2.088                  0.9641374       -40.70014
2.092                  0.9635861       -40.87994
2.096                   0.963031       -41.06074
2.1                     0.962472       -41.24256
2.104                  0.9619094       -41.42541
2.108                   0.961343       -41.60933
2.112                  0.9607731       -41.79431
2.116                  0.9601994       -41.98039
2.12                   0.9596223        -42.1676
2.124                  0.9590415       -42.35594
2.128                  0.9584572       -42.54545
2.132                  0.9578691       -42.73615
2.136                  0.9572775       -42.92806
2.14                   0.9566823        -43.1212
2.144                  0.9560833       -43.31561
2.148                  0.9554808       -43.51131
2.152                  0.9548745       -43.70832
2.156                  0.9542643       -43.90666
2.16                   0.9536502       -44.10638
2.164                  0.9530321       -44.30749
2.168                  0.9524101       -44.51002
2.172                  0.9517837         -44.714
2.176                  0.9511532       -44.91946
2.18                   0.9505183       -45.12642
2.184                  0.9498788       -45.33492
2.188                  0.9492347       -45.54498
2.192                  0.9485859       -45.75663
2.196                  0.9479319       -45.96993
2.2                    0.9472728       -46.18487
2.204                  0.9466084        -46.4015
2.208                  0.9459385       -46.61985
2.212                  0.9452626       -46.83996
2.216                  0.9445808       -47.06184
2.22                   0.9438928       -47.28553
2.224                  0.9431982       -47.51108
2.228                   0.942497       -47.73849
2.232                  0.9417886       -47.96783
2.236                   0.941073       -48.19911
2.24                   0.9403497       -48.43236
2.244                  0.9396186       -48.66762
2.248                  0.9388791       -48.90493
2.252                   0.938131       -49.14431
2.256                   0.937374        -49.3858
2.26                   0.9366078       -49.62942
2.264                  0.9358318       -49.87522
2.268                  0.9350458       -50.12324
2.272                  0.9342492       -50.37349
2.276                  0.9334418       -50.62602
2.28                   0.9326233       -50.88085
2.284                  0.9317931       -51.13802
2.288                  0.9309505       -51.39756
2.292                  0.9300954       -51.65951
2.296                  0.9292272       -51.92391
2.3                    0.9283455       -52.19077
2.304                  0.9274499       -52.46013
2.308                  0.9265396       -52.73202
2.312                  0.9256142        -53.0065
2.316                  0.9246735       -53.28355
2.32                   0.9237167       -53.56325
2.324                  0.9227433       -53.84561
2.328                  0.9217528       -54.13065
2.332                  0.9207446       -54.41843
2.336                  0.9197182       -54.70896
2.34                   0.9186731       -55.00229
2.344                  0.9176087       -55.29842
2.348                  0.9165242        -55.5974
2.352                  0.9154195       -55.89926