! TOUCHSTONE file generated by CST MICROWAVE STUDIO
! Date and time: Thu May 12 15:49:39 2022
! Project name: AppElm_antenne_dipole_FR4.cst
! Parameters = {L=42.68; e=0.035; f=2.45e+09; h=1.6; i=0.8; l1=4; lambda=122.449; ls=30; wl=1.7; ws=80}
! Header version: 2018
! Port assignment regex: !\s*Touchstone port\s*([0-9]+)\s*=\s*(CST MWS port|CST DS port)\s*([0-9]+|Zmin|Zmax)\s*\(\"(.*)\"\)(\s*mode\s*([0-9]+))?.*
! Touchstone port assignment:
! Touchstone port 1 = CST MWS port 1 ("")
# GHz S MA R 50
0                      0.9976478              -0
0.004                  0.9976499     -0.05284779
0.008                  0.9976562       -0.105711
0.012                  0.9976668      -0.1586051
0.016                  0.9976816      -0.2115454
0.02                   0.9977005      -0.2645469
0.024                  0.9977235      -0.3176247
0.028                  0.9977505      -0.3707933
0.032                  0.9977814      -0.4240671
0.036                  0.9978159      -0.4774602
0.04                   0.9978543      -0.5309861
0.044                  0.9978961      -0.5846579
0.048                  0.9979412      -0.6384883
0.052                  0.9979895      -0.6924893
0.056                  0.9980409      -0.7466725
0.06                   0.9980951      -0.8010487
0.064                  0.9981519      -0.8556281
0.068                  0.9982113      -0.9104203
0.072                  0.9982727      -0.9654341
0.076                  0.9983362       -1.020677
0.08                   0.9984016       -1.076158
0.084                  0.9984684       -1.131882
0.088                  0.9985365       -1.187854
0.092                  0.9986057       -1.244081
0.096                  0.9986756       -1.300566
0.1                    0.9987461       -1.357311
0.104                  0.9988169        -1.41432
0.108                  0.9988877       -1.471593
0.112                  0.9989584       -1.529131
0.116                  0.9990284       -1.586934
0.12                   0.9990979          -1.645
0.124                  0.9991663       -1.703327
0.128                  0.9992334       -1.761913
0.132                  0.9992991       -1.820753
0.136                  0.9993631       -1.879842
0.14                   0.9994251       -1.939176
0.144                   0.999485       -1.998748
0.148                  0.9995424       -2.058551
0.152                  0.9995973       -2.118577
0.156                  0.9996493       -2.178818
0.16                   0.9996984       -2.239265
0.164                  0.9997443       -2.299907
0.168                  0.9997868       -2.360736
0.172                  0.9998259       -2.421739
0.176                  0.9998612       -2.482905
0.18                   0.9998928       -2.544223
0.184                  0.9999206        -2.60568
0.188                  0.9999441       -2.667264
0.192                  0.9999638        -2.72896
0.196                  0.9999792       -2.790758
0.2                    0.9999904       -2.852641
0.204                  0.9999973       -2.914598
0.208                          1       -2.976613
0.212                  0.9999982       -3.038673
0.216                  0.9999921       -3.100765
0.22                   0.9999817       -3.162873
0.224                  0.9999671       -3.224984
0.228                  0.9999481       -3.287085
0.232                  0.9999252       -3.349161
0.236                  0.9998981         -3.4112
0.24                   0.9998668       -3.473188
0.244                  0.9998316       -3.535112
0.248                  0.9997929       -3.596959
0.252                  0.9997503       -3.658719
0.256                  0.9997042       -3.720381
0.26                   0.9996549        -3.78193
0.264                  0.9996024        -3.84336
0.268                  0.9995468       -3.904658
0.272                  0.9994885       -3.965816
0.276                  0.9994275       -4.026826
0.28                   0.9993641       -4.087679
0.284                  0.9992987       -4.148369
0.288                  0.9992313       -4.208888
0.292                  0.9991621       -4.269232
0.296                  0.9990914       -4.329397
0.3                    0.9990198       -4.389376
0.304                   0.998947       -4.449169
0.308                  0.9988735       -4.508774
0.312                  0.9987997       -4.568187
0.316                  0.9987257       -4.627411
0.32                   0.9986519       -4.686442
0.324                  0.9985783       -4.745287
0.328                  0.9985053       -4.803945
0.332                  0.9984333        -4.86242
0.336                  0.9983624       -4.920717
0.34                   0.9982929        -4.97884
0.344                   0.998225       -5.036795
0.348                  0.9981592        -5.09459
0.352                  0.9980954       -5.152232
0.356                  0.9980339       -5.209729
0.36                    0.997975       -5.267092
0.364                   0.997919       -5.324329
0.368                   0.997866       -5.381452
0.372                  0.9978161       -5.438473
0.376                  0.9977696       -5.495405
0.38                   0.9977268       -5.552258
0.384                  0.9976877       -5.609047
0.388                  0.9976524       -5.665787
0.392                  0.9976211       -5.722492
0.396                  0.9975938       -5.779176
0.4                    0.9975708       -5.835856
0.404                  0.9975521       -5.892546
0.408                  0.9975377       -5.949263
0.412                  0.9975279       -6.006024
0.416                  0.9975224       -6.062844
0.42                   0.9975214       -6.119741
0.424                   0.997525        -6.17673
0.428                  0.9975331        -6.23383
0.432                  0.9975456       -6.291056
0.436                  0.9975624       -6.348426
0.44                   0.9975837       -6.405955
0.444                  0.9976093        -6.46366
0.448                  0.9976391       -6.521558
0.452                  0.9976729       -6.579664
0.456                  0.9977107       -6.637993
0.46                   0.9977525       -6.696559
0.464                  0.9977978       -6.755379
0.468                  0.9978467       -6.814465
0.472                   0.997899       -6.873832
0.476                  0.9979543       -6.933492
0.48                   0.9980127       -6.993456
0.484                  0.9980739       -7.053737
0.488                  0.9981374       -7.114346
0.492                  0.9982034       -7.175292
0.496                  0.9982712       -7.236585
0.5                     0.998341       -7.298233
0.504                  0.9984122       -7.360242
0.508                  0.9984847       -7.422621
0.512                  0.9985583       -7.485374
0.516                  0.9986325       -7.548507
0.52                   0.9987072       -7.612023
0.524                   0.998782       -7.675924
0.528                  0.9988567       -7.740216
0.532                  0.9989308       -7.804896
0.536                  0.9990044       -7.869964
0.54                   0.9990769       -7.935421
0.544                  0.9991482       -8.001264
0.548                   0.999218       -8.067491
0.552                  0.9992859       -8.134097
0.556                  0.9993518       -8.201079
0.56                   0.9994152        -8.26843
0.564                   0.999476       -8.336143
0.568                  0.9995342       -8.404214
0.572                   0.999589       -8.472632
0.576                  0.9996406       -8.541387
0.58                   0.9996887       -8.610473
0.584                   0.999733       -8.679877
0.588                  0.9997734       -8.749587
0.592                  0.9998097       -8.819594
0.596                  0.9998416       -8.889886
0.6                    0.9998693       -8.960447
0.604                  0.9998921       -9.031266
0.608                  0.9999104       -9.102328
0.612                  0.9999238       -9.173619
0.616                  0.9999323       -9.245125
0.62                   0.9999359       -9.316831
0.624                  0.9999343       -9.388723
0.628                  0.9999278       -9.460783
0.632                  0.9999161       -9.532997
0.636                  0.9998994       -9.605349
0.64                   0.9998774       -9.677826
0.644                  0.9998505       -9.750411
0.648                  0.9998186       -9.823088
0.652                  0.9997816       -9.895844
0.656                  0.9997399        -9.96866
0.66                   0.9996932       -10.04153
0.664                   0.999642       -10.11443
0.668                  0.9995863       -10.18734
0.672                  0.9995261       -10.26027
0.676                  0.9994617       -10.33319
0.68                   0.9993933       -10.40609
0.684                   0.999321       -10.47897
0.688                  0.9992451        -10.5518
0.692                  0.9991659       -10.62457
0.696                  0.9990833        -10.6973
0.7                    0.9989978       -10.76994
0.704                  0.9989097       -10.84252
0.708                   0.998819         -10.915
0.712                  0.9987262        -10.9874
0.716                  0.9986316       -11.05971
0.72                   0.9985353       -11.13191
0.724                  0.9984378       -11.20401
0.728                  0.9983392       -11.27601
0.732                  0.9982401        -11.3479
0.736                  0.9981404       -11.41969
0.74                   0.9980407       -11.49137
0.744                  0.9979413       -11.56295
0.748                  0.9978424       -11.63443
0.752                  0.9977442       -11.70582
0.756                  0.9976473       -11.77712
0.76                   0.9975518       -11.84834
0.764                  0.9974581       -11.91948
0.768                  0.9973664       -11.99056
0.772                  0.9972769       -12.06158
0.776                  0.9971901       -12.13256
0.78                   0.9971063        -12.2035
0.784                  0.9970254       -12.27443
0.788                  0.9969479       -12.34534
0.792                  0.9968741       -12.41627
0.796                  0.9968041       -12.48721
0.8                    0.9967379        -12.5582
0.804                  0.9966761       -12.62925
0.808                  0.9966187       -12.70036
0.812                  0.9965659       -12.77157
0.816                  0.9965177       -12.84289
0.82                   0.9964743       -12.91435
0.824                  0.9964359       -12.98595
0.828                  0.9964024       -13.05773
0.832                   0.996374        -13.1297
0.836                  0.9963508       -13.20188
0.84                   0.9963328       -13.27429
0.844                  0.9963198       -13.34697
0.848                   0.996312       -13.41992
0.852                  0.9963095       -13.49317
0.856                  0.9963119       -13.56674
0.86                   0.9963195       -13.64066
0.864                   0.996332       -13.71494
0.868                  0.9963492        -13.7896
0.872                  0.9963711       -13.86468
0.876                  0.9963976       -13.94017
0.88                   0.9964285       -14.01612
0.884                  0.9964635       -14.09253
0.888                  0.9965026       -14.16943
0.892                  0.9965454       -14.24683
0.896                  0.9965918       -14.32475
0.9                    0.9966414        -14.4032
0.904                   0.996694       -14.48222
0.908                  0.9967495        -14.5618
0.912                  0.9968072       -14.64196
0.916                  0.9968671       -14.72272
0.92                   0.9969289       -14.80409
0.924                  0.9969922       -14.88608
0.928                  0.9970565        -14.9687
0.932                  0.9971216       -15.05197
0.936                  0.9971872       -15.13588
0.94                    0.997253       -15.22044
0.944                  0.9973184       -15.30566
0.948                  0.9973831       -15.39155
0.952                  0.9974469       -15.47811
0.956                  0.9975093       -15.56534
0.96                   0.9975698       -15.65324
0.964                  0.9976284       -15.74181
0.968                  0.9976843       -15.83105
0.972                  0.9977375       -15.92096
0.976                  0.9977874       -16.01154
0.98                   0.9978339       -16.10277
0.984                  0.9978764       -16.19466
0.988                  0.9979146        -16.2872
0.992                  0.9979483       -16.38037
0.996                  0.9979773       -16.47417
1                       0.998001       -16.56859
1.004                  0.9980193       -16.66362
1.008                  0.9980318       -16.75925
1.012                  0.9980385       -16.85546
1.016                  0.9980389       -16.95224
1.02                   0.9980329       -17.04959
1.024                  0.9980203       -17.14745
1.028                  0.9980009       -17.24586
1.032                  0.9979744       -17.34479
1.036                  0.9979409       -17.44418
1.04                   0.9979002       -17.54407
1.044                   0.997852       -17.64442
1.048                  0.9977966       -17.74518
1.052                  0.9977335        -17.8464
1.056                   0.997663       -17.94801
1.06                    0.997585       -18.05002
1.064                  0.9974995       -18.15236
1.068                  0.9974063       -18.25509
1.072                  0.9973058       -18.35815
1.076                   0.997198       -18.46153
1.08                    0.997083       -18.56518
1.084                  0.9969608       -18.66916
1.088                  0.9968317       -18.77336
1.092                  0.9966956       -18.87784
1.096                   0.996553       -18.98253
1.1                    0.9964039       -19.08747
1.104                  0.9962487       -19.19263
1.108                  0.9960875       -19.29795
1.112                  0.9959206       -19.40346
1.116                  0.9957482       -19.50917
1.12                   0.9955708       -19.61504
1.124                  0.9953887       -19.72101
1.128                  0.9952019       -19.82718
1.132                  0.9950111       -19.93348
1.136                  0.9948165       -20.03992
1.14                   0.9946186       -20.14649
1.144                  0.9944175       -20.25319
1.148                  0.9942138       -20.36002
1.152                  0.9940078       -20.46699
1.156                  0.9937999       -20.57409
1.16                   0.9935905       -20.68132
1.164                  0.9933802        -20.7887
1.168                   0.993169       -20.89622
1.172                  0.9929575       -21.00391
1.176                  0.9927461       -21.11176
1.18                   0.9925354       -21.21979
1.184                  0.9923255       -21.32801
1.188                  0.9921167       -21.43644
1.192                  0.9919097       -21.54509
1.196                  0.9917047       -21.65397
1.2                    0.9915019       -21.76313
1.204                  0.9913019       -21.87255
1.208                  0.9911049       -21.98228
1.212                  0.9909112       -22.09234
1.216                  0.9907212       -22.20275
1.22                   0.9905351       -22.31352
1.224                  0.9903531       -22.42471
1.228                  0.9901753       -22.53632
1.232                  0.9900024       -22.64839
1.236                   0.989834       -22.76096
1.24                   0.9896707       -22.87405
1.244                  0.9895124       -22.98769
1.248                  0.9893593       -23.10193
1.252                  0.9892115       -23.21678
1.256                   0.989069       -23.33229
1.26                    0.988932       -23.44849
1.264                  0.9888003       -23.56542
1.268                  0.9886739       -23.68311
1.272                  0.9885529       -23.80161
1.276                   0.988437       -23.92094
1.28                   0.9883262       -24.04114
1.284                  0.9882203       -24.16225
1.288                  0.9881193       -24.28431
1.292                  0.9880227       -24.40735
1.296                  0.9879306       -24.53141
1.3                    0.9878426       -24.65651
1.304                  0.9877582       -24.78272
1.308                  0.9876774       -24.91004
1.312                  0.9875997       -25.03852
1.316                  0.9875247       -25.16818
1.32                   0.9874521       -25.29907
1.324                  0.9873815       -25.43122
1.328                  0.9873123       -25.56465
1.332                  0.9872441       -25.69939
1.336                  0.9871764       -25.83547
1.34                   0.9871088       -25.97291
1.344                  0.9870407       -26.11176
1.348                  0.9869715       -26.25202
1.352                  0.9869007       -26.39371
1.356                  0.9868277       -26.53687
1.36                    0.986752       -26.68151
1.364                  0.9866729       -26.82765
1.368                  0.9865898        -26.9753
1.372                   0.986502       -27.12449
1.376                  0.9864092       -27.27522
1.38                   0.9863104       -27.42751
1.384                  0.9862052       -27.58136
1.388                  0.9860929       -27.73679
1.392                   0.985973        -27.8938
1.396                  0.9858445        -28.0524
1.4                    0.9857072       -28.21259
1.404                  0.9855603       -28.37438
1.408                  0.9854032       -28.53776
1.412                  0.9852354       -28.70274
1.416                  0.9850562       -28.86931
1.42                    0.984865       -29.03746
1.424                  0.9846614        -29.2072
1.428                  0.9844448       -29.37852
1.432                  0.9842146       -29.55141
1.436                  0.9839705       -29.72586
1.44                   0.9837118       -29.90186
1.444                  0.9834383        -30.0794
1.448                  0.9831492       -30.25848
1.452                  0.9828445       -30.43906
1.456                  0.9825236       -30.62116
1.46                   0.9821862       -30.80474
1.464                  0.9818319        -30.9898
1.468                  0.9814605       -31.17631
1.472                  0.9810717       -31.36427
1.476                  0.9806652       -31.55367
1.48                    0.980241       -31.74448
1.484                  0.9797987       -31.93669
1.488                  0.9793384       -32.13027
1.492                  0.9788598       -32.32523
1.496                   0.978363       -32.52153
1.5                    0.9778476       -32.71918
1.504                  0.9773139       -32.91816
1.508                  0.9767618       -33.11844
1.512                  0.9761916       -33.32002
1.516                   0.975603        -33.5229
1.52                   0.9749964       -33.72705
1.524                  0.9743717       -33.93247
1.528                  0.9737292       -34.13915
1.532                  0.9730692       -34.34709
1.536                  0.9723917       -34.55628
1.54                    0.971697       -34.76672
1.544                  0.9709854       -34.97841
1.548                  0.9702572       -35.19135
1.552                   0.969513       -35.40554
1.556                  0.9687525       -35.62099
1.56                   0.9679764       -35.83771
1.564                   0.967185        -36.0557
1.568                  0.9663788       -36.27498
1.572                   0.965558       -36.49556
1.576                  0.9647231       -36.71746
1.58                   0.9638744       -36.94072
1.584                  0.9630123       -37.16532
1.588                  0.9621372       -37.39133
1.592                  0.9612497       -37.61875
1.596                  0.9603499       -37.84763
1.6                    0.9594383       -38.07799
1.604                  0.9585151       -38.30988
1.608                  0.9575811       -38.54333
1.612                  0.9566362       -38.77839
1.616                  0.9556808       -39.01511
1.62                   0.9547154       -39.25354
1.624                  0.9537401       -39.49374
1.628                  0.9527553       -39.73575
1.632                   0.951761       -39.97964
1.636                  0.9507578       -40.22547
1.64                   0.9497454       -40.47331
1.644                  0.9487241       -40.72322
1.648                  0.9476941       -40.97528
1.652                  0.9466553       -41.22956
1.656                  0.9456077       -41.48614
1.66                   0.9445513        -41.7451
1.664                  0.9434861       -42.00652
1.668                  0.9424117       -42.27049
1.672                  0.9413281       -42.53709
1.676                  0.9402349       -42.80642
1.68                   0.9391319       -43.07856
1.684                  0.9380187       -43.35361
1.688                  0.9368947       -43.63167
1.692                  0.9357598       -43.91282
1.696                  0.9346131       -44.19718
1.7                     0.933454       -44.48484
1.704                  0.9322818       -44.77591
1.708                  0.9310961       -45.07047
1.712                  0.9298955       -45.36866
1.716                  0.9286796       -45.67056
1.72                   0.9274474       -45.97627
1.724                  0.9261977       -46.28591
1.728                  0.9249295       -46.59959
1.732                  0.9236415       -46.91741
1.736                  0.9223328       -47.23947
1.74                   0.9210018       -47.56589
1.744                  0.9196474       -47.89676
1.748                   0.918268        -48.2322
1.752                  0.9168624       -48.57232
1.756                   0.915429        -48.9172
1.76                    0.913966       -49.26697
1.764                  0.9124718       -49.62171
1.768                  0.9109449       -49.98154
1.772                  0.9093835       -50.34656
1.776                  0.9077858       -50.71687
1.78                   0.9061499       -51.09254
1.784                  0.9044739        -51.4737
1.788                  0.9027561       -51.86043
1.792                  0.9009943       -52.25283
1.796                  0.8991864       -52.65098
1.8                    0.8973307       -53.05498
1.804                  0.8954249       -53.46491
1.808                  0.8934669       -53.88087
1.812                  0.8914546       -54.30293
1.816                  0.8893861       -54.73117
1.82                   0.8872589        -55.1657
1.824                  0.8850711       -55.60655
1.828                  0.8828202       -56.05384
1.832                  0.8805043       -56.50761
1.836                   0.878121       -56.96796
1.84                   0.8756684       -57.43496
1.844                  0.8731442       -57.90865
1.848                   0.870546       -58.38912
1.852                  0.8678719       -58.87644
1.856                  0.8651197       -59.37066
1.86                   0.8622871       -59.87186
1.864                  0.8593721       -60.38011
1.868                  0.8563728       -60.89542
1.872                  0.8532871       -61.41789
1.876                  0.8501127       -61.94758
1.88                   0.8468479       -62.48453
1.884                  0.8434907        -63.0288
1.888                  0.8400392       -63.58046
1.892                  0.8364915       -64.13955
1.896                  0.8328459       -64.70615
1.9                    0.8291007       -65.28028
1.904                  0.8252542       -65.86202
1.908                  0.8213046       -66.45144
1.912                  0.8172506       -67.04856
1.916                  0.8130908       -67.65344
1.92                   0.8088233       -68.26619
1.924                  0.8044472       -68.88682
1.928                  0.7999612       -69.51542
1.932                   0.795364       -70.15203
1.936                  0.7906546       -70.79675
1.94                   0.7858317       -71.44963
1.944                  0.7808947       -72.11074
1.948                  0.7758427       -72.78017
1.952                   0.770675       -73.45798
1.956                  0.7653908       -74.14427
1.96                   0.7599896       -74.83912
1.964                  0.7544711       -75.54261
1.968                  0.7488347       -76.25489
1.972                  0.7430802       -76.97601
1.976                  0.7372076       -77.70609
1.98                   0.7312168       -78.44528
1.984                  0.7251078       -79.19368
1.988                  0.7188809       -79.95142
1.992                  0.7125363       -80.71865
1.996                  0.7060745       -81.49553
2                       0.699496       -82.28222
2.004                  0.6928015       -83.07888
2.008                  0.6859918       -83.88572
2.012                  0.6790675       -84.70291
2.016                    0.67203       -85.53068
2.02                   0.6648802       -86.36925
2.024                  0.6576195       -87.21887
2.028                  0.6502493       -88.07981
2.032                  0.6427712       -88.95234
2.036                  0.6351867       -89.83675
2.04                   0.6274977       -90.73336
2.044                  0.6197063       -91.64252
2.048                  0.6118144       -92.56459
2.052                  0.6038243           -93.5
2.056                  0.5957384       -94.44914
2.06                   0.5875594       -95.41248
2.064                  0.5792899       -96.39049
2.068                  0.5709328       -97.38373
2.072                  0.5624911       -98.39274
2.076                   0.553968       -99.41813
2.08                   0.5453671       -100.4606
2.084                  0.5366918       -101.5207
2.088                  0.5279459       -102.5994
2.092                  0.5191334       -103.6973
2.096                  0.5102584       -104.8155
2.1                    0.5013256       -105.9547
2.104                  0.4923393       -107.1161
2.108                  0.4833047       -108.3007
2.112                  0.4742267       -109.5098
2.116                  0.4651109       -110.7445
2.12                    0.455963       -112.0062
2.124                   0.446789       -113.2965
2.128                  0.4375953       -114.6169
2.132                  0.4283886       -115.9691
2.136                  0.4191761       -117.3551
2.14                   0.4099652       -118.7766
2.144                   0.400764       -120.2361
2.148                   0.391581       -121.7356
2.152                  0.3824252       -123.2779
2.156                  0.3733062       -124.8654
2.16                   0.3642342       -126.5012
2.164                  0.3552201       -128.1882
2.168                  0.3462756       -129.9298
2.172                  0.3374131       -131.7295
2.176                  0.3286459        -133.591
2.18                   0.3199884       -135.5184
2.184                  0.3114558       -137.5156
2.188                  0.3030646       -139.5871
2.192                  0.2948322       -141.7374
2.196                  0.2867776        -143.971
2.2                    0.2789209       -146.2927
2.204                  0.2712835        -148.707
2.208                  0.2638883       -151.2185
2.212                  0.2567595       -153.8313
2.216                  0.2499228       -156.5493
2.22                   0.2434048       -159.3755
2.224                  0.2372334       -162.3123
2.228                  0.2314373       -165.3606
2.232                  0.2260454       -168.5203
2.236                  0.2210869       -171.7893
2.24                   0.2165903       -175.1637
2.244                  0.2125829       -178.6372
2.248                  0.2090901        177.7987
2.252                  0.2061345         174.155
2.256                  0.2037351         170.445
2.26                   0.2019065        166.6841
2.264                  0.2006585        162.8895
2.268                  0.1999955        159.0796
2.272                  0.1999159        155.2733
2.276                  0.2004124        151.4897
2.28                   0.2014722        147.7467
2.284                  0.2030774        144.0614
2.288                  0.2052056        140.4486
2.292                  0.2078306        136.9212
2.296                  0.2109233        133.4896
2.3                    0.2144529        130.1619
2.304                   0.218387        126.9436
2.308                   0.222693        123.8384
2.312                  0.2273382        120.8479
2.316                  0.2322907         117.972
2.32                   0.2375198        115.2094
2.324                  0.2429958        112.5576
2.328                  0.2486907        110.0132
2.332                  0.2545782        107.5724
2.336                  0.2606337         105.231
2.34                   0.2668341        102.9843
2.344                  0.2731584        100.8279
2.348                  0.2795867        98.75695
2.352                   0.286101        96.76695