! TOUCHSTONE file generated by CST MICROWAVE STUDIO
! Date and time: Thu May 12 15:49:35 2022
! Project name: AppElm_antenne_dipole_FR4.cst
! Parameters = {L=32.98; e=0.035; f=2.45e+09; h=1.6; i=0.8; l1=4; lambda=122.449; ls=30; wl=1.7; ws=80}
! Header version: 2018
! Port assignment regex: !\s*Touchstone port\s*([0-9]+)\s*=\s*(CST MWS port|CST DS port)\s*([0-9]+|Zmin|Zmax)\s*\(\"(.*)\"\)(\s*mode\s*([0-9]+))?.*
! Touchstone port assignment:
! Touchstone port 1 = CST MWS port 1 ("")
# GHz S MA R 50
0                      0.9999555              -0
0.004                  0.9999542     -0.05345363
0.008                  0.9999506      -0.1069016
0.012                  0.9999444      -0.1603381
0.016                   0.999936      -0.2137576
0.02                   0.9999252      -0.2671545
0.024                  0.9999119      -0.3205231
0.028                  0.9998965      -0.3738579
0.032                  0.9998787      -0.4271535
0.036                  0.9998585      -0.4804046
0.04                   0.9998361      -0.5336057
0.044                  0.9998116      -0.5867519
0.048                   0.999785      -0.6398379
0.052                  0.9997561      -0.6928591
0.056                  0.9997253      -0.7458103
0.06                   0.9996926       -0.798687
0.064                  0.9996579      -0.8514851
0.068                  0.9996214      -0.9041995
0.072                   0.999583      -0.9568268
0.076                   0.999543       -1.009363
0.08                   0.9995015       -1.061803
0.084                  0.9994584       -1.114145
0.088                  0.9994137       -1.166385
0.092                  0.9993677        -1.21852
0.096                  0.9993206       -1.270547
0.1                    0.9992721       -1.322462
0.104                  0.9992228       -1.374265
0.108                  0.9991722       -1.425952
0.112                   0.999121       -1.477521
0.116                  0.9990688       -1.528972
0.12                   0.9990159       -1.580302
0.124                  0.9989626        -1.63151
0.128                  0.9989088       -1.682595
0.132                  0.9988545       -1.733557
0.136                  0.9988001       -1.784396
0.14                   0.9987454        -1.83511
0.144                  0.9986908       -1.885701
0.148                  0.9986362       -1.936169
0.152                  0.9985817       -1.986514
0.156                  0.9985276       -2.036738
0.16                   0.9984739       -2.086842
0.164                  0.9984206       -2.136827
0.168                   0.998368       -2.186695
0.172                  0.9983161       -2.236449
0.176                  0.9982649        -2.28609
0.18                   0.9982148       -2.335621
0.184                  0.9981656       -2.385046
0.188                  0.9981175       -2.434367
0.192                  0.9980706       -2.483588
0.196                  0.9980251       -2.532712
0.2                    0.9979809       -2.581743
0.204                  0.9979382       -2.630686
0.208                  0.9978972       -2.679543
0.212                  0.9978577       -2.728322
0.216                  0.9978199       -2.777026
0.22                    0.997784       -2.825659
0.224                    0.99775       -2.874228
0.228                   0.997718       -2.922737
0.232                  0.9976879       -2.971193
0.236                    0.99766         -3.0196
0.24                   0.9976341       -3.067964
0.244                  0.9976103       -3.116293
0.248                  0.9975891       -3.164591
0.252                  0.9975699       -3.212865
0.256                  0.9975532       -3.261121
0.26                   0.9975387       -3.309367
0.264                  0.9975265       -3.357608
0.268                  0.9975169       -3.405851
0.272                  0.9975097       -3.454103
0.276                   0.997505       -3.502371
0.28                   0.9975027       -3.550661
0.284                  0.9975029       -3.598981
0.288                  0.9975055       -3.647336
0.292                  0.9975106       -3.695735
0.296                  0.9975182       -3.744183
0.3                    0.9975282       -3.792688
0.304                  0.9975408       -3.841257
0.308                  0.9975556       -3.889897
0.312                  0.9975728       -3.938613
0.316                  0.9975925       -3.987413
0.32                   0.9976143       -4.036303
0.324                  0.9976386       -4.085289
0.328                   0.997665        -4.13438
0.332                  0.9976936       -4.183578
0.336                  0.9977243       -4.232893
0.34                    0.997757        -4.28233
0.344                  0.9977919       -4.331892
0.348                  0.9978286       -4.381588
0.352                  0.9978672       -4.431422
0.356                  0.9979075       -4.481401
0.36                   0.9979497       -4.531527
0.364                  0.9979933       -4.581807
0.368                  0.9980385       -4.632246
0.372                  0.9980852       -4.682847
0.376                  0.9981332       -4.733616
0.38                   0.9981826       -4.784555
0.384                   0.998233        -4.83567
0.388                  0.9982846       -4.886963
0.392                   0.998337       -4.938437
0.396                  0.9983904       -4.990097
0.4                    0.9984445       -5.041944
0.404                  0.9984992       -5.093981
0.408                  0.9985545        -5.14621
0.412                  0.9986102       -5.198633
0.416                  0.9986662       -5.251252
0.42                   0.9987224       -5.304069
0.424                  0.9987786       -5.357084
0.428                   0.998835       -5.410297
0.432                  0.9988911       -5.463711
0.436                  0.9989469       -5.517324
0.44                   0.9990023       -5.571138
0.444                  0.9990574        -5.62515
0.448                  0.9991119       -5.679361
0.452                  0.9991655       -5.733772
0.456                  0.9992184       -5.788379
0.46                   0.9992704       -5.843181
0.464                  0.9993213       -5.898177
0.468                  0.9993711       -5.953365
0.472                  0.9994196       -6.008743
0.476                  0.9994668       -6.064307
0.48                   0.9995125       -6.120056
0.484                  0.9995567       -6.175986
0.488                  0.9995993       -6.232093
0.492                  0.9996403       -6.288376
0.496                  0.9996793        -6.34483
0.5                    0.9997164        -6.40145
0.504                  0.9997516       -6.458234
0.508                  0.9997847       -6.515176
0.512                  0.9998156       -6.572273
0.516                  0.9998442       -6.629519
0.52                    0.999871       -6.686908
0.524                  0.9998951       -6.744438
0.528                  0.9999169       -6.802102
0.532                  0.9999362       -6.859895
0.536                  0.9999531       -6.917812
0.54                   0.9999675       -6.975846
0.544                  0.9999793       -7.033993
0.548                  0.9999884       -7.092247
0.552                   0.999995       -7.150601
0.556                  0.9999988       -7.209051
0.56                           1       -7.267589
0.564                  0.9999985       -7.326211
0.568                  0.9999944       -7.384909
0.572                  0.9999874       -7.443678
0.576                  0.9999779       -7.502513
0.58                   0.9999657       -7.561404
0.584                  0.9999508        -7.62035
0.588                  0.9999331       -7.679343
0.592                   0.999913       -7.738377
0.596                  0.9998902       -7.797445
0.6                    0.9998647       -7.856541
0.604                  0.9998367       -7.915663
0.608                  0.9998063       -7.974802
0.612                  0.9997734       -8.033952
0.616                  0.9997382        -8.09311
0.62                   0.9997005       -8.152269
0.624                  0.9996605       -8.211424
0.628                  0.9996183       -8.270572
0.632                  0.9995742       -8.329706
0.636                  0.9995278       -8.388821
0.64                   0.9994795       -8.447915
0.644                  0.9994292       -8.506983
0.648                  0.9993771       -8.566019
0.652                  0.9993233       -8.625022
0.656                   0.999268       -8.683986
0.66                   0.9992111        -8.74291
0.664                  0.9991526        -8.80179
0.668                  0.9990929       -8.860623
0.672                  0.9990319       -8.919405
0.676                  0.9989699       -8.978137
0.68                   0.9989068       -9.036814
0.684                  0.9988428       -9.095436
0.688                  0.9987781       -9.154002
0.692                  0.9987127       -9.212509
0.696                  0.9986468       -9.270957
0.7                    0.9985803       -9.329348
0.704                  0.9985135       -9.387676
0.708                  0.9984467       -9.445948
0.712                  0.9983798       -9.504159
0.716                   0.998313       -9.562313
0.72                   0.9982462       -9.620411
0.724                  0.9981799       -9.678451
0.728                   0.998114        -9.73644
0.732                  0.9980485       -9.794375
0.736                  0.9979839       -9.852262
0.74                   0.9979199       -9.910102
0.744                  0.9978569       -9.967897
0.748                  0.9977949       -10.02565
0.752                   0.997734       -10.08337
0.756                  0.9976746       -10.14106
0.76                   0.9976163       -10.19872
0.764                  0.9975595       -10.25635
0.768                  0.9975044       -10.31396
0.772                  0.9974509       -10.37156
0.776                  0.9973992       -10.42916
0.78                   0.9973493       -10.48674
0.784                  0.9973015       -10.54433
0.788                  0.9972557       -10.60193
0.792                   0.997212       -10.65955
0.796                  0.9971706       -10.71719
0.8                    0.9971313       -10.77485
0.804                  0.9970946       -10.83255
0.808                  0.9970602        -10.8903
0.812                  0.9970284       -10.94809
0.816                   0.996999       -11.00594
0.82                   0.9969723       -11.06387
0.824                  0.9969482       -11.12186
0.828                  0.9969268       -11.17993
0.832                  0.9969083        -11.2381
0.836                  0.9968923       -11.29636
0.84                   0.9968793       -11.35473
0.844                  0.9968689       -11.41321
0.848                  0.9968614       -11.47182
0.852                  0.9968567       -11.53056
0.856                  0.9968548       -11.58945
0.86                   0.9968558       -11.64848
0.864                  0.9968596       -11.70767
0.868                  0.9968661       -11.76702
0.872                  0.9968755       -11.82656
0.876                  0.9968875       -11.88627
0.88                   0.9969023       -11.94618
0.884                  0.9969196       -12.00629
0.888                  0.9969397       -12.06661
0.892                  0.9969623       -12.12715
0.896                  0.9969875       -12.18792
0.9                     0.997015       -12.24892
0.904                   0.997045       -12.31016
0.908                  0.9970773       -12.37165
0.912                  0.9971117        -12.4334
0.916                  0.9971484       -12.49541
0.92                   0.9971871        -12.5577
0.924                  0.9972277       -12.62026
0.928                  0.9972703       -12.68311
0.932                  0.9973146       -12.74625
0.936                  0.9973605        -12.8097
0.94                    0.997408       -12.87344
0.944                   0.997457        -12.9375
0.948                  0.9975072       -13.00188
0.952                  0.9975586       -13.06657
0.956                  0.9976111        -13.1316
0.96                   0.9976645       -13.19695
0.964                  0.9977188       -13.26264
0.968                  0.9977737       -13.32867
0.972                  0.9978292       -13.39505
0.976                  0.9978851       -13.46177
0.98                    0.997941       -13.52884
0.984                  0.9979973       -13.59626
0.988                  0.9980535       -13.66405
0.992                  0.9981095       -13.73218
0.996                  0.9981653       -13.80068
1                      0.9982205       -13.86954
1.004                  0.9982751       -13.93875
1.008                   0.998329       -14.00834
1.012                   0.998382       -14.07828
1.016                   0.998434       -14.14859
1.02                   0.9984847       -14.21926
1.024                  0.9985342       -14.29029
1.028                  0.9985821       -14.36168
1.032                  0.9986286       -14.43343
1.036                  0.9986731       -14.50553
1.04                    0.998716       -14.57802
1.044                  0.9987565       -14.65083
1.048                  0.9987951       -14.72399
1.052                  0.9988315       -14.79749
1.056                  0.9988654       -14.87136
1.06                   0.9988967       -14.94556
1.064                  0.9989255       -15.02012
1.068                  0.9989515       -15.09498
1.072                  0.9989746       -15.17017
1.076                  0.9989948       -15.24571
1.08                   0.9990119       -15.32153
1.084                  0.9990259       -15.39767
1.088                  0.9990365       -15.47417
1.092                  0.9990439       -15.55091
1.096                   0.999048       -15.62795
1.1                    0.9990483       -15.70533
1.104                  0.9990453       -15.78297
1.108                  0.9990386       -15.86086
1.112                  0.9990283       -15.93905
1.116                  0.9990141       -16.01752
1.12                   0.9989962       -16.09623
1.124                  0.9989746       -16.17516
1.128                  0.9989491       -16.25439
1.132                  0.9989197       -16.33384
1.136                  0.9988864       -16.41351
1.14                   0.9988492       -16.49342
1.144                  0.9988083       -16.57354
1.148                  0.9987633       -16.65387
1.152                  0.9987145        -16.7344
1.156                  0.9986618       -16.81513
1.16                   0.9986053       -16.89605
1.164                   0.998545       -16.97715
1.168                  0.9984807       -17.05843
1.172                  0.9984128       -17.13988
1.176                  0.9983414       -17.22148
1.18                   0.9982661       -17.30325
1.184                  0.9981872       -17.38517
1.188                  0.9981049       -17.46723
1.192                  0.9980192       -17.54943
1.196                    0.99793       -17.63176
1.2                    0.9978376       -17.71422
1.204                   0.997742        -17.7968
1.208                  0.9976433        -17.8795
1.212                  0.9975417       -17.96231
1.216                  0.9974372       -18.04523
1.22                   0.9973299       -18.12825
1.224                  0.9972199       -18.21138
1.228                  0.9971074       -18.29459
1.232                  0.9969926       -18.37791
1.236                  0.9968756       -18.46131
1.24                   0.9967563        -18.5448
1.244                  0.9966352       -18.62838
1.248                  0.9965121       -18.71205
1.252                  0.9963873       -18.79579
1.256                  0.9962611       -18.87962
1.26                   0.9961334       -18.96353
1.264                  0.9960045       -19.04752
1.268                  0.9958745        -19.1316
1.272                  0.9957436       -19.21575
1.276                  0.9956119           -19.3
1.28                   0.9954796       -19.38432
1.284                  0.9953469       -19.46874
1.288                  0.9952138       -19.55325
1.292                  0.9950807       -19.63785
1.296                  0.9949476       -19.72255
1.3                    0.9948147       -19.80735
1.304                  0.9946822       -19.89226
1.308                  0.9945501       -19.97728
1.312                  0.9944189       -20.06241
1.316                  0.9942883       -20.14767
1.32                   0.9941588       -20.23306
1.324                  0.9940304       -20.31858
1.328                  0.9939034       -20.40424
1.332                  0.9937777       -20.49006
1.336                  0.9936536       -20.57603
1.34                   0.9935312       -20.66217
1.344                  0.9934107       -20.74849
1.348                  0.9932921       -20.83499
1.352                  0.9931756       -20.92169
1.356                  0.9930614        -21.0086
1.36                   0.9929495       -21.09572
1.364                    0.99284       -21.18307
1.368                   0.992733       -21.27065
1.372                  0.9926287       -21.35849
1.376                   0.992527       -21.44659
1.38                   0.9924282       -21.53496
1.384                  0.9923322       -21.62363
1.388                  0.9922393       -21.71259
1.392                  0.9921492       -21.80187
1.396                  0.9920622       -21.89147
1.4                    0.9919784       -21.98141
1.404                  0.9918977       -22.07171
1.408                    0.99182       -22.16238
1.412                  0.9917457       -22.25343
1.416                  0.9916746       -22.34488
1.42                   0.9916065       -22.43674
1.424                  0.9915417       -22.52903
1.428                  0.9914801       -22.62176
1.432                  0.9914217       -22.71495
1.436                  0.9913663       -22.80861
1.44                    0.991314       -22.90276
1.444                  0.9912648        -22.9974
1.448                  0.9912185       -23.09257
1.452                  0.9911751       -23.18827
1.456                  0.9911347       -23.28451
1.46                   0.9910969       -23.38131
1.464                  0.9910617        -23.4787
1.468                  0.9910292       -23.57667
1.472                  0.9909991       -23.67524
1.476                  0.9909711       -23.77444
1.48                   0.9909456       -23.87427
1.484                   0.990922       -23.97475
1.488                  0.9909003       -24.07589
1.492                  0.9908804       -24.17771
1.496                  0.9908621       -24.28022
1.5                    0.9908452       -24.38342
1.504                  0.9908296       -24.48734
1.508                   0.990815       -24.59199
1.512                  0.9908014       -24.69737
1.516                  0.9907884       -24.80351
1.52                   0.9907759       -24.91041
1.524                  0.9907637       -25.01808
1.528                  0.9907516       -25.12653
1.532                  0.9907392       -25.23578
1.536                  0.9907265       -25.34583
1.54                   0.9907134       -25.45669
1.544                  0.9906993       -25.56837
1.548                  0.9906842       -25.68088
1.552                  0.9906678       -25.79423
1.556                  0.9906497       -25.90843
1.56                     0.99063       -26.02348
1.564                  0.9906082       -26.13939
1.568                  0.9905841       -26.25616
1.572                  0.9905575        -26.3738
1.576                  0.9905282       -26.49232
1.58                   0.9904957       -26.61172
1.584                  0.9904601         -26.732
1.588                  0.9904207       -26.85318
1.592                  0.9903776       -26.97524
1.596                  0.9903304       -27.09821
1.6                    0.9902791       -27.22206
1.604                  0.9902231       -27.34681
1.608                  0.9901622       -27.47247
1.612                  0.9900964       -27.59903
1.616                  0.9900254       -27.72648
1.62                   0.9899488       -27.85483
1.624                  0.9898663        -27.9841
1.628                  0.9897779       -28.11425
1.632                  0.9896832       -28.24531
1.636                  0.9895823       -28.37726
1.64                   0.9894745        -28.5101
1.644                  0.9893599       -28.64384
1.648                  0.9892383       -28.77846
1.652                  0.9891093       -28.91397
1.656                  0.9889729       -29.05036
1.66                   0.9888288       -29.18763
1.664                   0.988677       -29.32578
1.668                  0.9885172       -29.46478
1.672                  0.9883491       -29.60466
1.676                  0.9881726       -29.74539
1.68                   0.9879879       -29.88698
1.684                  0.9877943       -30.02942
1.688                  0.9875922        -30.1727
1.692                  0.9873811       -30.31682
1.696                  0.9871611       -30.46177
1.7                    0.9869319       -30.60753
1.704                  0.9866937       -30.75413
1.708                  0.9864461       -30.90153
1.712                  0.9861892       -31.04975
1.716                   0.985923       -31.19876
1.72                   0.9856472       -31.34857
1.724                   0.985362       -31.49916
1.728                  0.9850674       -31.65054
1.732                   0.984763       -31.80269
1.736                  0.9844491       -31.95562
1.74                   0.9841257       -32.10931
1.744                  0.9837927       -32.26376
1.748                  0.9834501       -32.41897
1.752                   0.983098       -32.57493
1.756                  0.9827365       -32.73163
1.76                   0.9823654       -32.88907
1.764                  0.9819851       -33.04726
1.768                  0.9815952       -33.20617
1.772                  0.9811961       -33.36582
1.776                  0.9807879        -33.5262
1.78                   0.9803706       -33.68729
1.784                  0.9799443       -33.84912
1.788                   0.979509       -34.01167
1.792                  0.9790649       -34.17494
1.796                  0.9786124       -34.33893
1.8                    0.9781511       -34.50365
1.804                  0.9776815       -34.66909
1.808                  0.9772037       -34.83526
1.812                  0.9767177       -35.00215
1.816                  0.9762238       -35.16978
1.82                   0.9757221       -35.33813
1.824                  0.9752127       -35.50723
1.828                  0.9746959       -35.67707
1.832                  0.9741717       -35.84767
1.836                  0.9736405       -36.01902
1.84                   0.9731022       -36.19114
1.844                  0.9725573       -36.36403
1.848                  0.9720058       -36.53771
1.852                  0.9714479       -36.71218
1.856                  0.9708837       -36.88745
1.86                   0.9703136       -37.06355
1.864                  0.9697375       -37.24048
1.868                  0.9691557       -37.41825
1.872                  0.9685685       -37.59688
1.876                   0.967976       -37.77639
1.88                   0.9673784        -37.9568
1.884                  0.9667756       -38.13811
1.888                  0.9661682       -38.32035
1.892                  0.9655561       -38.50355
1.896                  0.9649395       -38.68772
1.9                    0.9643184       -38.87288
1.904                  0.9636933       -39.05906
1.908                  0.9630643       -39.24627
1.912                  0.9624311       -39.43456
1.916                  0.9617942       -39.62393
1.92                   0.9611535       -39.81442
1.924                  0.9605092       -40.00607
1.928                  0.9598615       -40.19888
1.932                  0.9592103        -40.3929
1.936                  0.9585557       -40.58816
1.94                   0.9578978       -40.78468
1.944                  0.9572365        -40.9825
1.948                  0.9565721       -41.18166
1.952                  0.9559045       -41.38218
1.956                  0.9552335       -41.58412
1.96                   0.9545592       -41.78749
1.964                  0.9538817       -41.99233
1.968                  0.9532008       -42.19869
1.972                  0.9525164        -42.4066
1.976                  0.9518286        -42.6161
1.98                   0.9511371       -42.82724
1.984                  0.9504419       -43.04005
1.988                  0.9497429       -43.25457
1.992                  0.9490397       -43.47085
1.996                  0.9483324       -43.68893
2                      0.9476207       -43.90885
2.004                  0.9469044       -44.13065
2.008                  0.9461831       -44.35439
2.012                  0.9454568       -44.58009
2.016                   0.944725       -44.80782
2.02                   0.9439875        -45.0376
2.024                   0.943244        -45.2695
2.028                  0.9424943       -45.50355
2.032                  0.9417377       -45.73981
2.036                  0.9409741       -45.97831
2.04                    0.940203       -46.21911
2.044                  0.9394238       -46.46225
2.048                  0.9386364       -46.70778
2.052                    0.93784       -46.95575
2.056                  0.9370343        -47.2062
2.06                   0.9362188       -47.45918
2.064                  0.9353929       -47.71474
2.068                  0.9345561       -47.97292
2.072                  0.9337077       -48.23378
2.076                  0.9328473       -48.49736
2.08                   0.9319741       -48.76369
2.084                  0.9310878       -49.03285
2.088                  0.9301873       -49.30486
2.092                  0.9292723       -49.57978
2.096                   0.928342       -49.85764
2.1                    0.9273955       -50.13851
2.104                  0.9264323       -50.42242
2.108                  0.9254517       -50.70941
2.112                  0.9244529       -50.99953
2.116                  0.9234349       -51.29283
2.12                   0.9223972       -51.58935
2.124                   0.921339       -51.88912
2.128                  0.9202593       -52.19221
2.132                  0.9191576       -52.49864
2.136                  0.9180326       -52.80846
2.14                   0.9168839       -53.12171
2.144                  0.9157104       -53.43843
2.148                  0.9145112       -53.75866
2.152                  0.9132855       -54.08244
2.156                  0.9120324       -54.40981
2.16                    0.910751       -54.74082
2.164                  0.9094406       -55.07548
2.168                  0.9080999       -55.41386
2.172                  0.9067283       -55.75596
2.176                  0.9053248       -56.10186
2.18                   0.9038884       -56.45156
2.184                  0.9024182       -56.80511
2.188                  0.9009132       -57.16254
2.192                  0.8993727       -57.52389
2.196                  0.8977957        -57.8892
2.2                    0.8961811       -58.25849
2.204                  0.8945281       -58.63179
2.208                  0.8928358       -59.00913
2.212                  0.8911032       -59.39056
2.216                  0.8893295        -59.7761
2.22                   0.8875135        -60.1658
2.224                  0.8856547       -60.55966
2.228                  0.8837519       -60.95773
2.232                  0.8818044       -61.36002
2.236                  0.8798112       -61.76658
2.24                   0.8777714       -62.17744
2.244                  0.8756841       -62.59261
2.248                  0.8735486       -63.01214
2.252                   0.871364       -63.43605
2.256                  0.8691294       -63.86434
2.26                   0.8668442       -64.29709
2.264                  0.8645072        -64.7343
2.268                  0.8621182         -65.176
2.272                  0.8596758       -65.62221
2.276                  0.8571797       -66.07298
2.28                   0.8546289       -66.52832
2.284                  0.8520228       -66.98826
2.288                  0.8493607       -67.45285
2.292                  0.8466421        -67.9221
2.296                  0.8438659       -68.39603
2.3                    0.8410318       -68.87471
2.304                  0.8381393       -69.35812
2.308                  0.8351875       -69.84632
2.312                   0.832176       -70.33932
2.316                  0.8291042       -70.83719
2.32                   0.8259718       -71.33991
2.324                   0.822778       -71.84758
2.328                  0.8195224       -72.36018
2.332                  0.8162047       -72.87776
2.336                  0.8128245       -73.40036
2.34                   0.8093814       -73.92801
2.344                  0.8058751       -74.46076
2.348                  0.8023051       -74.99864
2.352                  0.7986713       -75.54171