! TOUCHSTONE file generated by CST MICROWAVE STUDIO
! Date and time: Thu May 12 15:49:38 2022
! Project name: AppElm_antenne_dipole_FR4.cst
! Parameters = {L=40.74; e=0.035; f=2.45e+09; h=1.6; i=0.8; l1=4; lambda=122.449; ls=30; wl=1.7; ws=80}
! Header version: 2018
! Port assignment regex: !\s*Touchstone port\s*([0-9]+)\s*=\s*(CST MWS port|CST DS port)\s*([0-9]+|Zmin|Zmax)\s*\(\"(.*)\"\)(\s*mode\s*([0-9]+))?.*
! Touchstone port assignment:
! Touchstone port 1 = CST MWS port 1 ("")
# GHz S MA R 50
0                      0.9978797              -0
0.004                  0.9978815     -0.05210578
0.008                  0.9978869      -0.1042241
0.012                  0.9978957      -0.1563675
0.016                  0.9979081      -0.2085485
0.02                   0.9979239      -0.2607793
0.024                  0.9979433       -0.313072
0.028                  0.9979658      -0.3654388
0.032                  0.9979918      -0.4178912
0.036                  0.9980209      -0.4704407
0.04                   0.9980531      -0.5230987
0.044                  0.9980883      -0.5758757
0.048                  0.9981264      -0.6287822
0.052                  0.9981671      -0.6818285
0.056                  0.9982106      -0.7350238
0.06                   0.9982564      -0.7883774
0.064                  0.9983046      -0.8418978
0.068                  0.9983547      -0.8955933
0.072                  0.9984072      -0.9494714
0.076                  0.9984612       -1.003539
0.08                   0.9985169       -1.057802
0.084                   0.998574       -1.112267
0.088                  0.9986322       -1.166939
0.092                  0.9986917       -1.221822
0.096                  0.9987518       -1.276921
0.1                    0.9988128       -1.332238
0.104                  0.9988741       -1.387775
0.108                  0.9989356       -1.443535
0.112                  0.9989972       -1.499519
0.116                  0.9990586       -1.555727
0.12                   0.9991196        -1.61216
0.124                    0.99918       -1.668815
0.128                  0.9992395       -1.725692
0.132                  0.9992982       -1.782789
0.136                  0.9993555       -1.840101
0.14                   0.9994115       -1.897627
0.144                  0.9994658       -1.955362
0.148                  0.9995184         -2.0133
0.152                  0.9995692       -2.071437
0.156                  0.9996177       -2.129766
0.16                   0.9996639       -2.188282
0.164                  0.9997077       -2.246976
0.168                   0.999749       -2.305842
0.172                  0.9997876       -2.364871
0.176                  0.9998231       -2.424055
0.18                   0.9998558       -2.483386
0.184                  0.9998854       -2.542853
0.188                  0.9999117       -2.602447
0.192                  0.9999347       -2.662158
0.196                  0.9999544       -2.721976
0.2                    0.9999707        -2.78189
0.204                  0.9999833        -2.84189
0.208                  0.9999925       -2.901965
0.212                  0.9999981       -2.962103
0.216                          1       -3.022294
0.22                   0.9999982       -3.082526
0.224                  0.9999929       -3.142788
0.228                  0.9999839       -3.203069
0.232                  0.9999716       -3.263358
0.236                  0.9999554       -3.323643
0.24                   0.9999359       -3.383914
0.244                  0.9999129       -3.444161
0.248                  0.9998864       -3.504371
0.252                  0.9998569       -3.564536
0.256                  0.9998239       -3.624644
0.26                   0.9997879       -3.684688
0.264                  0.9997489       -3.744656
0.268                  0.9997071        -3.80454
0.272                  0.9996625       -3.864333
0.276                  0.9996154       -3.924024
0.28                   0.9995658       -3.983608
0.284                   0.999514       -4.043076
0.288                    0.99946       -4.102423
0.292                  0.9994042       -4.161642
0.296                  0.9993467       -4.220728
0.3                    0.9992874       -4.279676
0.304                   0.999227       -4.338482
0.308                  0.9991654       -4.397143
0.312                  0.9991028       -4.455655
0.316                  0.9990394       -4.514017
0.32                   0.9989755       -4.572227
0.324                  0.9989112       -4.630284
0.328                   0.998847       -4.688188
0.332                  0.9987826       -4.745941
0.336                  0.9987187       -4.803541
0.34                   0.9986553       -4.860994
0.344                  0.9985925       -4.918301
0.348                  0.9985309       -4.975464
0.352                  0.9984703       -5.032489
0.356                  0.9984109       -5.089382
0.36                   0.9983531       -5.146146
0.364                  0.9982973       -5.202788
0.368                  0.9982432       -5.259315
0.372                  0.9981914       -5.315735
0.376                  0.9981416       -5.372056
0.38                   0.9980945       -5.428286
0.384                    0.99805       -5.484434
0.388                  0.9980082        -5.54051
0.392                  0.9979692       -5.596526
0.396                  0.9979335        -5.65249
0.4                    0.9979007       -5.708416
0.404                  0.9978713       -5.764313
0.408                  0.9978452       -5.820195
0.412                  0.9978227       -5.876073
0.416                  0.9978036       -5.931961
0.42                   0.9977882       -5.987871
0.424                  0.9977764       -6.043815
0.428                  0.9977684       -6.099808
0.432                  0.9977641       -6.155864
0.436                  0.9977636       -6.211994
0.44                   0.9977668       -6.268214
0.444                  0.9977738       -6.324536
0.448                  0.9977845       -6.380976
0.452                  0.9977989       -6.437544
0.456                  0.9978169       -6.494257
0.46                   0.9978386       -6.551126
0.464                  0.9978637       -6.608165
0.468                  0.9978923       -6.665386
0.472                  0.9979242       -6.722803
0.476                  0.9979594       -6.780427
0.48                   0.9979975       -6.838271
0.484                  0.9980388       -6.896346
0.488                   0.998083       -6.954662
0.492                  0.9981298        -7.01323
0.496                  0.9981791       -7.072062
0.5                    0.9982308       -7.131166
0.504                  0.9982846       -7.190552
0.508                  0.9983405       -7.250227
0.512                  0.9983982         -7.3102
0.516                  0.9984575       -7.370479
0.52                   0.9985182       -7.431068
0.524                    0.99858       -7.491976
0.528                   0.998643       -7.553205
0.532                  0.9987065       -7.614762
0.536                  0.9987707       -7.676649
0.54                   0.9988351       -7.738871
0.544                  0.9988996        -7.80143
0.548                  0.9989639       -7.864327
0.552                  0.9990279       -7.927562
0.556                  0.9990912       -7.991136
0.56                   0.9991538       -8.055048
0.564                   0.999215       -8.119297
0.568                  0.9992753       -8.183879
0.572                  0.9993338       -8.248795
0.576                  0.9993908       -8.314037
0.58                   0.9994456       -8.379604
0.584                  0.9994983       -8.445489
0.588                  0.9995487       -8.511688
0.592                  0.9995965       -8.578193
0.596                  0.9996416       -8.644999
0.6                    0.9996838       -8.712096
0.604                  0.9997229       -8.779479
0.608                  0.9997587       -8.847138
0.612                  0.9997911       -8.915063
0.616                    0.99982       -8.983244
0.62                   0.9998451       -9.051674
0.624                  0.9998666       -9.120339
0.628                  0.9998841       -9.189229
0.632                  0.9998975       -9.258336
0.636                  0.9999071       -9.327644
0.64                   0.9999123       -9.397144
0.644                  0.9999135       -9.466823
0.648                  0.9999103        -9.53667
0.652                  0.9999029       -9.606673
0.656                  0.9998913       -9.676817
0.66                   0.9998752       -9.747092
0.664                   0.999855       -9.817488
0.668                  0.9998304       -9.887987
0.672                  0.9998017       -9.958579
0.676                  0.9997688       -10.02926
0.68                   0.9997318           -10.1
0.684                  0.9996908        -10.1708
0.688                  0.9996458       -10.24165
0.692                   0.999597       -10.31254
0.696                  0.9995446       -10.38345
0.7                    0.9994885       -10.45438
0.704                  0.9994289       -10.52531
0.708                  0.9993662       -10.59624
0.712                  0.9993004       -10.66715
0.716                  0.9992315       -10.73804
0.72                     0.99916       -10.80891
0.724                  0.9990858       -10.87974
0.728                  0.9990093       -10.95052
0.732                  0.9989306       -11.02126
0.736                  0.9988499       -11.09194
0.74                   0.9987675       -11.16257
0.744                  0.9986838       -11.23313
0.748                  0.9985986       -11.30363
0.752                  0.9985126       -11.37407
0.756                  0.9984257       -11.44444
0.76                   0.9983383       -11.51474
0.764                  0.9982507       -11.58497
0.768                  0.9981629       -11.65514
0.772                  0.9980755       -11.72525
0.776                  0.9979885       -11.79529
0.78                   0.9979023       -11.86528
0.784                  0.9978169       -11.93522
0.788                  0.9977328       -12.00511
0.792                  0.9976502       -12.07496
0.796                  0.9975691       -12.14479
0.8                      0.99749       -12.21458
0.804                  0.9974131       -12.28436
0.808                  0.9973385       -12.35414
0.812                  0.9972664       -12.42392
0.816                  0.9971971       -12.49372
0.82                   0.9971308       -12.56354
0.824                  0.9970676       -12.63341
0.828                  0.9970076       -12.70333
0.832                  0.9969511       -12.77331
0.836                  0.9968982       -12.84338
0.84                   0.9968489       -12.91355
0.844                  0.9968036       -12.98382
0.848                  0.9967622       -13.05423
0.852                  0.9967248       -13.12478
0.856                  0.9966916       -13.19549
0.86                   0.9966626       -13.26638
0.864                  0.9966378       -13.33746
0.868                  0.9966173       -13.40875
0.872                  0.9966012       -13.48027
0.876                  0.9965892       -13.55205
0.88                   0.9965815       -13.62409
0.884                  0.9965782       -13.69641
0.888                  0.9965789       -13.76903
0.892                   0.996584       -13.84197
0.896                   0.996593       -13.91525
0.9                    0.9966061       -13.98888
0.904                   0.996623       -14.06287
0.908                  0.9966437       -14.13726
0.912                   0.996668       -14.21205
0.916                  0.9966958       -14.28726
0.92                   0.9967269       -14.36291
0.924                   0.996761       -14.43901
0.928                  0.9967982       -14.51556
0.932                  0.9968381       -14.59261
0.936                  0.9968805       -14.67014
0.94                   0.9969253       -14.74817
0.944                  0.9969719       -14.82673
0.948                  0.9970206       -14.90581
0.952                  0.9970707       -14.98543
0.956                  0.9971222        -15.0656
0.96                   0.9971746       -15.14633
0.964                  0.9972278       -15.22762
0.968                  0.9972814       -15.30949
0.972                  0.9973353       -15.39194
0.976                  0.9973889       -15.47497
0.98                   0.9974422       -15.55859
0.984                  0.9974948        -15.6428
0.988                  0.9975463       -15.72761
0.992                  0.9975965       -15.81302
0.996                   0.997645       -15.89903
1                      0.9976917       -15.98563
1.004                  0.9977362       -16.07284
1.008                   0.997778       -16.16064
1.012                  0.9978172       -16.24903
1.016                  0.9978531       -16.33801
1.02                   0.9978858       -16.42758
1.024                  0.9979149       -16.51774
1.028                    0.99794       -16.60844
1.032                  0.9979611       -16.69975
1.036                  0.9979777       -16.79157
1.04                   0.9979897       -16.88397
1.044                  0.9979969       -16.97689
1.048                  0.9979989       -17.07038
1.052                  0.9979958       -17.16436
1.056                  0.9979871       -17.25884
1.06                   0.9979729       -17.35386
1.064                   0.997953       -17.44935
1.068                  0.9979271        -17.5453
1.072                  0.9978953       -17.64168
1.076                   0.997857       -17.73857
1.08                   0.9978129       -17.83585
1.084                  0.9977623       -17.93355
1.088                  0.9977055       -18.03169
1.092                  0.9976422       -18.13018
1.096                  0.9975724       -18.22911
1.1                    0.9974964       -18.32834
1.104                  0.9974138       -18.42792
1.108                  0.9973249       -18.52786
1.112                  0.9972297       -18.62813
1.116                  0.9971281        -18.7287
1.12                   0.9970204       -18.82954
1.124                  0.9969066       -18.93068
1.128                   0.996787       -19.03208
1.132                  0.9966614       -19.13374
1.136                  0.9965302       -19.23565
1.14                   0.9963935       -19.33779
1.144                  0.9962514       -19.44015
1.148                  0.9961043       -19.54273
1.152                  0.9959521        -19.6455
1.156                  0.9957955       -19.74848
1.16                   0.9956343       -19.85164
1.164                  0.9954689       -19.95498
1.168                  0.9952996        -20.0585
1.172                  0.9951266       -20.16219
1.176                  0.9949503       -20.26604
1.18                   0.9947709       -20.37007
1.184                  0.9945887       -20.47425
1.188                   0.994404        -20.5786
1.192                  0.9942172       -20.68311
1.196                  0.9940284       -20.78779
1.2                    0.9938382       -20.89263
1.204                  0.9936467       -20.99765
1.208                  0.9934544       -21.10285
1.212                  0.9932616       -21.20823
1.216                  0.9930683        -21.3138
1.22                   0.9928753       -21.41957
1.224                  0.9926826       -21.52556
1.228                  0.9924906       -21.63176
1.232                  0.9922997       -21.73821
1.236                  0.9921101       -21.84491
1.24                   0.9919221       -21.95186
1.244                  0.9917359        -22.0591
1.248                  0.9915519       -22.16665
1.252                  0.9913703       -22.27451
1.256                  0.9911914        -22.3827
1.26                   0.9910153       -22.49126
1.264                  0.9908424        -22.6002
1.268                  0.9906729       -22.70953
1.272                  0.9905069        -22.8193
1.276                  0.9903445       -22.92951
1.28                    0.990186       -23.04021
1.284                  0.9900314       -23.15141
1.288                   0.989881       -23.26314
1.292                  0.9897347       -23.37543
1.296                  0.9895927        -23.4883
1.3                    0.9894551       -23.60179
1.304                  0.9893217       -23.71592
1.308                  0.9891927       -23.83073
1.312                  0.9890681       -23.94624
1.316                  0.9889476       -24.06249
1.32                   0.9888314       -24.17951
1.324                  0.9887195       -24.29731
1.328                  0.9886115       -24.41595
1.332                  0.9885075       -24.53545
1.336                  0.9884072       -24.65583
1.34                   0.9883104       -24.77712
1.344                   0.988217       -24.89938
1.348                  0.9881269        -25.0226
1.352                  0.9880394       -25.14684
1.356                  0.9879548       -25.27211
1.36                   0.9878723       -25.39845
1.364                   0.987792       -25.52588
1.368                  0.9877133       -25.65443
1.372                  0.9876359       -25.78412
1.376                  0.9875596       -25.91499
1.38                   0.9874838       -26.04706
1.384                   0.987408       -26.18035
1.388                  0.9873323       -26.31488
1.392                  0.9872557       -26.45068
1.396                  0.9871779       -26.58777
1.4                    0.9870986       -26.72617
1.404                  0.9870172       -26.86589
1.408                  0.9869332       -27.00695
1.412                  0.9868462       -27.14938
1.416                  0.9867556       -27.29317
1.42                   0.9866608       -27.43836
1.424                  0.9865615       -27.58495
1.428                  0.9864572       -27.73295
1.432                   0.986347       -27.88238
1.436                   0.986231       -28.03324
1.44                   0.9861081       -28.18554
1.444                  0.9859779       -28.33928
1.448                  0.9858401       -28.49448
1.452                   0.985694       -28.65113
1.456                  0.9855392       -28.80924
1.46                   0.9853751       -28.96881
1.464                  0.9852013       -29.12984
1.468                  0.9850171       -29.29233
1.472                  0.9848224       -29.45627
1.476                  0.9846163       -29.62166
1.48                   0.9843986       -29.78851
1.484                  0.9841689        -29.9568
1.488                  0.9839269       -30.12653
1.492                  0.9836718       -30.29769
1.496                  0.9834035       -30.47027
1.5                    0.9831215       -30.64428
1.504                  0.9828257       -30.81968
1.508                  0.9825154       -30.99649
1.512                  0.9821906       -31.17467
1.516                  0.9818509       -31.35424
1.52                    0.981496       -31.53517
1.524                  0.9811258       -31.71745
1.528                    0.98074       -31.90108
1.532                  0.9803383       -32.08604
1.536                  0.9799207       -32.27232
1.54                    0.979487        -32.4599
1.544                  0.9790373       -32.64878
1.548                  0.9785711       -32.83895
1.552                  0.9780887       -33.03039
1.556                  0.9775898        -33.2231
1.56                   0.9770746       -33.41706
1.564                  0.9765429       -33.61226
1.568                  0.9759951       -33.80871
1.572                  0.9754309       -34.00638
1.576                  0.9748503       -34.20528
1.58                   0.9742538       -34.40539
1.584                  0.9736414       -34.60672
1.588                   0.973013       -34.80925
1.592                  0.9723691         -35.013
1.596                  0.9717098       -35.21794
1.6                    0.9710352        -35.4241
1.604                  0.9703454       -35.63148
1.608                  0.9696411       -35.84006
1.612                   0.968922       -36.04987
1.616                  0.9681889       -36.26091
1.62                   0.9674417       -36.47319
1.624                  0.9666808       -36.68672
1.628                  0.9659064       -36.90152
1.632                  0.9651191       -37.11759
1.636                   0.964319       -37.33496
1.64                   0.9635063       -37.55366
1.644                  0.9626815       -37.77369
1.648                  0.9618449       -37.99509
1.652                  0.9609967       -38.21789
1.656                  0.9601373       -38.44212
1.66                   0.9592669        -38.6678
1.664                  0.9583859       -38.89497
1.668                  0.9574945       -39.12368
1.672                   0.956593       -39.35395
1.676                  0.9556816       -39.58583
1.68                   0.9547606       -39.81937
1.684                  0.9538301       -40.05462
1.688                  0.9528903       -40.29162
1.692                  0.9519414       -40.53043
1.696                  0.9509836        -40.7711
1.7                     0.950017       -41.01368
1.704                  0.9490416       -41.25826
1.708                  0.9480575       -41.50487
1.712                  0.9470646       -41.75358
1.716                  0.9460631       -42.00448
1.72                   0.9450526       -42.25762
1.724                  0.9440333       -42.51307
1.728                  0.9430051        -42.7709
1.732                  0.9419674        -43.0312
1.736                  0.9409203       -43.29404
1.74                   0.9398636        -43.5595
1.744                  0.9387968       -43.82765
1.748                  0.9377196       -44.09858
1.752                  0.9366314       -44.37239
1.756                  0.9355319       -44.64913
1.76                   0.9344207       -44.92891
1.764                  0.9332969       -45.21182
1.768                  0.9321601       -45.49794
1.772                  0.9310095       -45.78737
1.776                  0.9298446       -46.08018
1.78                   0.9286643       -46.37647
1.784                   0.927468       -46.67635
1.788                  0.9262547       -46.97988
1.792                  0.9250234       -47.28718
1.796                  0.9237729       -47.59834
1.8                    0.9225027       -47.91343
1.804                  0.9212114       -48.23255
1.808                  0.9198976       -48.55581
1.812                  0.9185604       -48.88328
1.816                  0.9171986       -49.21507
1.82                   0.9158105       -49.55127
1.824                  0.9143952       -49.89196
1.828                   0.912951       -50.23723
1.832                  0.9114764       -50.58717
1.836                  0.9099702       -50.94188
1.84                   0.9084307       -51.30143
1.844                  0.9068563       -51.66592
1.848                  0.9052454       -52.03543
1.852                  0.9035964       -52.41004
1.856                  0.9019075       -52.78984
1.86                   0.9001771       -53.17491
1.864                  0.8984037       -53.56533
1.868                  0.8965852       -53.96116
1.872                  0.8947199       -54.36251
1.876                  0.8928058       -54.76943
1.88                   0.8908416       -55.18201
1.884                  0.8888251       -55.60031
1.888                  0.8867543        -56.0244
1.892                  0.8846277       -56.45436
1.896                  0.8824431       -56.89026
1.9                    0.8801989       -57.33215
1.904                  0.8778928       -57.78013
1.908                  0.8755236       -58.23422
1.912                  0.8730888       -58.69451
1.916                  0.8705869       -59.16105
1.92                   0.8680159       -59.63391
1.924                   0.865374       -60.11314
1.928                  0.8626593       -60.59881
1.932                  0.8598701       -61.09095
1.936                  0.8570045       -61.58965
1.94                   0.8540608       -62.09494
1.944                  0.8510373       -62.60689
1.948                  0.8479323       -63.12553
1.952                   0.844744       -63.65095
1.956                  0.8414711       -64.18316
1.96                   0.8381116       -64.72225
1.964                  0.8346642       -65.26826
1.968                  0.8311272       -65.82123
1.972                  0.8274992       -66.38122
1.976                  0.8237791        -66.9483
1.98                   0.8199651        -67.5225
1.984                  0.8160562       -68.10388
1.988                  0.8120509        -68.6925
1.992                  0.8079483       -69.28843
1.996                  0.8037472        -69.8917
2                      0.7994463       -70.50238
2.004                  0.7950449       -71.12055
2.008                   0.790542       -71.74624
2.012                  0.7859368       -72.37955
2.016                  0.7812283       -73.02052
2.02                   0.7764159       -73.66925
2.024                  0.7714992       -74.32579
2.028                  0.7664774       -74.99021
2.032                  0.7613502       -75.66263
2.036                  0.7561171       -76.34311
2.04                   0.7507779       -77.03176
2.044                  0.7453322       -77.72864
2.048                  0.7397801       -78.43389
2.052                  0.7341215       -79.14758
2.056                  0.7283565       -79.86986
2.06                   0.7224852       -80.60083
2.064                  0.7165079       -81.34064
2.068                  0.7104249       -82.08939
2.072                  0.7042367       -82.84725
2.076                  0.6979438       -83.61435
2.08                   0.6915468       -84.39088
2.084                  0.6850466       -85.17699
2.088                   0.678444       -85.97288
2.092                    0.67174       -86.77874
2.096                  0.6649357       -87.59478
2.1                    0.6580319       -88.42121
2.104                  0.6510306       -89.25829
2.108                  0.6439326       -90.10626
2.112                  0.6367397       -90.96538
2.116                  0.6294536       -91.83597
2.12                   0.6220758       -92.71831
2.124                  0.6146085       -93.61272
2.128                  0.6070536        -94.5196
2.132                  0.5994132       -95.43925
2.136                  0.5916895       -96.37214
2.14                   0.5838852       -97.31865
2.144                  0.5760025       -98.27925
2.148                  0.5680445       -99.25443
2.152                  0.5600136       -100.2447
2.156                  0.5519131       -101.2507
2.16                   0.5437461       -102.2728
2.164                  0.5355159       -103.3119
2.168                  0.5272259       -104.3686
2.172                  0.5188799       -105.4436
2.176                  0.5104815       -106.5376
2.18                   0.5020351       -107.6516
2.184                  0.4935447       -108.7864
2.188                  0.4850149        -109.943
2.192                  0.4764501       -111.1224
2.196                  0.4678556       -112.3257
2.2                    0.4592363       -113.5541
2.204                  0.4505977       -114.8089
2.208                  0.4419456       -116.0914
2.212                   0.433286       -117.4031
2.216                  0.4246252       -118.7455
2.22                   0.4159699       -120.1203
2.224                  0.4073272       -121.5293
2.228                  0.3987046       -122.9743
2.232                    0.39011       -124.4575
2.236                  0.3815517       -125.9809
2.24                   0.3730385       -127.5468
2.244                    0.36458       -129.1578
2.248                   0.356186       -130.8163
2.252                  0.3478672       -132.5252
2.256                  0.3396347       -134.2873
2.26                   0.3315007       -136.1056
2.264                  0.3234777       -137.9833
2.268                  0.3155794       -139.9236
2.272                    0.30782       -141.9299
2.276                   0.300215       -144.0056
2.28                   0.2927804       -146.1541
2.284                  0.2855334       -148.3788
2.288                  0.2784922       -150.6831
2.292                  0.2716757       -153.0699
2.296                   0.265104       -155.5422
2.3                    0.2587979       -158.1023
2.304                  0.2527791       -160.7521
2.308                  0.2470697       -163.4928
2.312                  0.2416924       -166.3247
2.316                    0.23667       -169.2471
2.32                    0.232025       -172.2581
2.324                  0.2277797       -175.3543
2.328                  0.2239551        -178.531
2.332                   0.220571        178.2182
2.336                   0.217645        174.9012
2.34                   0.2151925        171.5276
2.344                  0.2132257        168.1086
2.348                  0.2117535        164.6562
2.352                  0.2107811        161.1838