! TOUCHSTONE file generated by CST MICROWAVE STUDIO
! Date and time: Thu May 12 15:49:40 2022
! Project name: AppElm_antenne_dipole_FR4.cst
! Parameters = {L=44.62; e=0.035; f=2.45e+09; h=1.6; i=0.8; l1=4; lambda=122.449; ls=30; wl=1.7; ws=80}
! Header version: 2018
! Port assignment regex: !\s*Touchstone port\s*([0-9]+)\s*=\s*(CST MWS port|CST DS port)\s*([0-9]+|Zmin|Zmax)\s*\(\"(.*)\"\)(\s*mode\s*([0-9]+))?.*
! Touchstone port assignment:
! Touchstone port 1 = CST MWS port 1 ("")
# GHz S MA R 50
0                      0.9974125              -0
0.004                   0.997415     -0.05353856
0.008                  0.9974225      -0.1070959
0.012                  0.9974349      -0.1606907
0.016                  0.9974523      -0.2143415
0.02                   0.9974747      -0.2680667
0.024                  0.9975017      -0.3218844
0.028                  0.9975335      -0.3758122
0.032                  0.9975697      -0.4298676
0.036                  0.9976104      -0.4840673
0.04                   0.9976554      -0.5384277
0.044                  0.9977044      -0.5929645
0.048                  0.9977573      -0.6476929
0.052                   0.997814       -0.702627
0.056                   0.997874      -0.7577806
0.06                   0.9979373      -0.8131665
0.064                  0.9980035      -0.8687967
0.068                  0.9980725       -0.924682
0.072                  0.9981441      -0.9808327
0.076                  0.9982177       -1.037258
0.08                   0.9982932       -1.093966
0.084                  0.9983704       -1.150963
0.088                  0.9984489       -1.208257
0.092                  0.9985283       -1.265851
0.096                  0.9986085        -1.32375
0.1                    0.9986891       -1.381957
0.104                  0.9987698       -1.440473
0.108                  0.9988503       -1.499298
0.112                    0.99893       -1.558433
0.116                  0.9990091       -1.617876
0.12                    0.999087       -1.677623
0.124                  0.9991632       -1.737672
0.128                  0.9992379       -1.798017
0.132                  0.9993104       -1.858652
0.136                  0.9993807       -1.919571
0.14                   0.9994482       -1.980765
0.144                  0.9995129       -2.042226
0.148                  0.9995746       -2.103944
0.152                  0.9996326       -2.165908
0.156                  0.9996873       -2.228108
0.16                   0.9997382        -2.29053
0.164                   0.999785       -2.353161
0.168                  0.9998275       -2.415989
0.172                  0.9998656       -2.478998
0.176                  0.9998994       -2.542174
0.18                   0.9999283       -2.605502
0.184                  0.9999526       -2.668965
0.188                  0.9999719       -2.732548
0.192                  0.9999863       -2.796233
0.196                  0.9999957       -2.860006
0.2                    0.9999999       -2.923847
0.204                  0.9999991        -2.98774
0.208                  0.9999931       -3.051668
0.212                  0.9999822       -3.115614
0.216                  0.9999662        -3.17956
0.22                    0.999945       -3.243491
0.224                  0.9999191       -3.307388
0.228                  0.9998884       -3.371236
0.232                  0.9998528       -3.435018
0.236                  0.9998128        -3.49872
0.24                   0.9997682       -3.562324
0.244                  0.9997193       -3.625819
0.248                  0.9996665       -3.689187
0.252                  0.9996096       -3.752417
0.256                  0.9995491       -3.815496
0.26                   0.9994851       -3.878412
0.264                  0.9994177       -3.941155
0.268                  0.9993475       -4.003711
0.272                  0.9992746       -4.066075
0.276                  0.9991992       -4.128236
0.28                   0.9991217       -4.190187
0.284                  0.9990423       -4.251921
0.288                  0.9989613       -4.313435
0.292                  0.9988791       -4.374723
0.296                   0.998796       -4.435781
0.3                    0.9987123       -4.496608
0.304                   0.998628       -4.557204
0.308                  0.9985439       -4.617567
0.312                  0.9984603         -4.6777
0.316                  0.9983771       -4.737606
0.32                    0.998295       -4.797287
0.324                  0.9982142       -4.856748
0.328                  0.9981351       -4.915996
0.332                  0.9980577       -4.975038
0.336                  0.9979827        -5.03388
0.34                     0.99791       -5.092534
0.344                  0.9978402       -5.151009
0.348                  0.9977734       -5.209317
0.352                    0.99771       -5.267468
0.356                  0.9976502       -5.325478
0.36                   0.9975941       -5.383361
0.364                  0.9975421        -5.44113
0.368                  0.9974942       -5.498801
0.372                  0.9974508       -5.556392
0.376                  0.9974119       -5.613918
0.38                   0.9973779       -5.671399
0.384                  0.9973487       -5.728851
0.388                  0.9973245       -5.786294
0.392                  0.9973053       -5.843749
0.396                  0.9972913       -5.901232
0.4                    0.9972826       -5.958765
0.404                  0.9972791       -6.016368
0.408                   0.997281        -6.07406
0.412                  0.9972881       -6.131863
0.416                  0.9973005       -6.189797
0.42                   0.9973182        -6.24788
0.424                   0.997341       -6.306134
0.428                  0.9973687       -6.364579
0.432                  0.9974016       -6.423233
0.436                  0.9974393       -6.482117
0.44                   0.9974817       -6.541248
0.444                  0.9975285       -6.600645
0.448                  0.9975799       -6.660325
0.452                  0.9976353       -6.720305
0.456                  0.9976947       -6.780603
0.46                   0.9977577       -6.841231
0.464                  0.9978244       -6.902206
0.468                  0.9978941       -6.963542
0.472                  0.9979668       -7.025251
0.476                  0.9980422       -7.087344
0.48                   0.9981198       -7.149834
0.484                  0.9981996       -7.212729
0.488                  0.9982811       -7.276037
0.492                  0.9983639       -7.339768
0.496                  0.9984479       -7.403926
0.5                    0.9985326       -7.468519
0.504                  0.9986177       -7.533549
0.508                  0.9987027        -7.59902
0.512                  0.9987877       -7.664932
0.516                  0.9988718       -7.731286
0.52                   0.9989549       -7.798083
0.524                  0.9990368       -7.865319
0.528                  0.9991169       -7.932991
0.532                  0.9991952       -8.001099
0.536                   0.999271        -8.06963
0.54                   0.9993442       -8.138583
0.544                  0.9994144       -8.207946
0.548                  0.9994814       -8.277715
0.552                  0.9995447       -8.347878
0.556                  0.9996043       -8.418423
0.56                   0.9996597        -8.48934
0.564                  0.9997108       -8.560614
0.568                  0.9997573       -8.632235
0.572                   0.999799       -8.704186
0.576                  0.9998358       -8.776452
0.58                   0.9998672       -8.849018
0.584                  0.9998934       -8.921867
0.588                   0.999914       -8.994982
0.592                  0.9999291       -9.068345
0.596                  0.9999382       -9.141941
0.6                    0.9999416        -9.21575
0.604                  0.9999392       -9.289753
0.608                  0.9999308        -9.36393
0.612                  0.9999165       -9.438265
0.616                  0.9998961       -9.512736
0.62                   0.9998699       -9.587328
0.624                  0.9998379       -9.662019
0.628                  0.9997999       -9.736791
0.632                  0.9997562       -9.811629
0.636                  0.9997069       -9.886511
0.64                   0.9996522        -9.96142
0.644                  0.9995921       -10.03634
0.648                  0.9995268       -10.11126
0.652                  0.9994566       -10.18615
0.656                  0.9993816       -10.26101
0.66                   0.9993022       -10.33581
0.664                  0.9992184       -10.41055
0.668                  0.9991305       -10.48521
0.672                   0.999039       -10.55979
0.676                  0.9989441       -10.63426
0.68                   0.9988459       -10.70863
0.684                   0.998745       -10.78287
0.688                  0.9986416       -10.85699
0.692                   0.998536       -10.93098
0.696                  0.9984286       -11.00483
0.7                    0.9983199       -11.07854
0.704                  0.9982099       -11.15211
0.708                  0.9980993       -11.22553
0.712                  0.9979884       -11.29881
0.716                  0.9978775       -11.37195
0.72                    0.997767       -11.44494
0.724                  0.9976573       -11.51781
0.728                  0.9975488       -11.59054
0.732                  0.9974417       -11.66315
0.736                  0.9973366       -11.73565
0.74                   0.9972337       -11.80804
0.744                  0.9971333       -11.88034
0.748                  0.9970359       -11.95255
0.752                  0.9969418        -12.0247
0.756                  0.9968511        -12.0968
0.76                   0.9967644       -12.16886
0.764                  0.9966819        -12.2409
0.768                  0.9966036       -12.31294
0.772                  0.9965301         -12.385
0.776                  0.9964615       -12.45709
0.78                   0.9963979       -12.52925
0.784                  0.9963397       -12.60148
0.788                  0.9962869       -12.67382
0.792                  0.9962399       -12.74629
0.796                  0.9961986        -12.8189
0.8                    0.9961632       -12.89169
0.804                  0.9961337       -12.96468
0.808                  0.9961101        -13.0379
0.812                  0.9960927       -13.11137
0.816                  0.9960813       -13.18511
0.82                   0.9960759       -13.25916
0.824                  0.9960766       -13.33354
0.828                  0.9960832       -13.40827
0.832                  0.9960955       -13.48338
0.836                  0.9961137       -13.55889
0.84                   0.9961374       -13.63484
0.844                  0.9961666       -13.71124
0.848                  0.9962009       -13.78812
0.852                  0.9962402        -13.8655
0.856                  0.9962844       -13.94341
0.86                    0.996333       -14.02186
0.864                  0.9963859       -14.10089
0.868                  0.9964428        -14.1805
0.872                  0.9965033       -14.26072
0.876                  0.9965671       -14.34157
0.88                   0.9966338       -14.42306
0.884                  0.9967031       -14.50521
0.888                  0.9967746       -14.58803
0.892                  0.9968478       -14.67154
0.896                  0.9969225       -14.75575
0.9                    0.9969982       -14.84067
0.904                  0.9970743       -14.92632
0.908                  0.9971507       -15.01268
0.912                  0.9972267       -15.09978
0.916                   0.997302       -15.18762
0.92                    0.997376       -15.27621
0.924                  0.9974485       -15.36553
0.928                  0.9975187       -15.45561
0.932                  0.9975866       -15.54642
0.936                  0.9976515       -15.63798
0.94                   0.9977129       -15.73028
0.944                  0.9977705       -15.82331
0.948                  0.9978239       -15.91706
0.952                  0.9978727       -16.01153
0.956                  0.9979164       -16.10671
0.96                   0.9979546       -16.20259
0.964                  0.9979872       -16.29915
0.968                  0.9980135       -16.39638
0.972                  0.9980336       -16.49427
0.976                  0.9980468       -16.59281
0.98                   0.9980529       -16.69197
0.984                  0.9980518       -16.79174
0.988                  0.9980431        -16.8921
0.992                  0.9980265       -16.99303
0.996                   0.998002       -17.09451
1                      0.9979694       -17.19653
1.004                  0.9979284       -17.29905
1.008                   0.997879       -17.40207
1.012                  0.9978212       -17.50555
1.016                  0.9977547       -17.60948
1.02                   0.9976796       -17.71384
1.024                  0.9975959       -17.81859
1.028                  0.9975035       -17.92375
1.032                  0.9974026        -18.0292
1.036                  0.9972931       -18.13504
1.04                   0.9971753       -18.24118
1.044                  0.9970492       -18.34763
1.048                   0.996915       -18.45434
1.052                  0.9967729        -18.5613
1.056                  0.9966231       -18.66848
1.06                   0.9964658       -18.77591
1.064                  0.9963014       -18.88355
1.068                    0.99613       -18.99133
1.072                   0.995952        -19.0993
1.076                  0.9957678       -19.20744
1.08                   0.9955776       -19.31568
1.084                  0.9953819       -19.42406
1.088                  0.9951809       -19.53258
1.092                  0.9949753       -19.64124
1.096                  0.9947653       -19.74997
1.1                    0.9945515       -19.85879
1.104                  0.9943342       -19.96775
1.108                   0.994114       -20.07676
1.112                  0.9938912       -20.18588
1.116                  0.9936664        -20.2951
1.12                   0.9934399       -20.40441
1.124                  0.9932125       -20.51386
1.128                  0.9929844        -20.6234
1.132                  0.9927562       -20.73307
1.136                  0.9925284       -20.84288
1.14                   0.9923015       -20.95283
1.144                  0.9920759       -21.06295
1.148                  0.9918519       -21.17325
1.152                  0.9916303       -21.28376
1.156                  0.9914113       -21.39448
1.16                   0.9911954       -21.50545
1.164                   0.990983       -21.61669
1.168                  0.9907744       -21.72822
1.172                  0.9905699       -21.84008
1.176                  0.9903702        -21.9523
1.18                   0.9901754       -22.06489
1.184                  0.9899856       -22.17791
1.188                  0.9898014       -22.29138
1.192                  0.9896229       -22.40534
1.196                  0.9894503       -22.51982
1.2                    0.9892838       -22.63486
1.204                  0.9891235        -22.7505
1.208                  0.9889696       -22.86679
1.212                  0.9888221       -22.98376
1.216                  0.9886812       -23.10145
1.22                   0.9885466        -23.2199
1.224                  0.9884186       -23.33917
1.228                   0.988297       -23.45928
1.232                  0.9881817       -23.58029
1.236                  0.9880726       -23.70223
1.24                   0.9879695       -23.82516
1.244                  0.9878722        -23.9491
1.248                  0.9877804       -24.07411
1.252                  0.9876939       -24.20023
1.256                  0.9876124        -24.3275
1.26                   0.9875355       -24.45595
1.264                  0.9874628       -24.58564
1.268                  0.9873939        -24.7166
1.272                  0.9873283       -24.84886
1.276                  0.9872656       -24.98247
1.28                   0.9872053       -25.11745
1.284                  0.9871468       -25.25386
1.288                  0.9870894       -25.39171
1.292                  0.9870329       -25.53105
1.296                  0.9869763       -25.67189
1.3                    0.9869191       -25.81427
1.304                  0.9868605       -25.95822
1.308                  0.9868002       -26.10376
1.312                  0.9867371       -26.25092
1.316                  0.9866706       -26.39971
1.32                      0.9866       -26.55015
1.324                  0.9865248       -26.70227
1.328                  0.9864439       -26.85607
1.332                  0.9863567       -27.01157
1.336                  0.9862626       -27.16878
1.34                   0.9861606       -27.32772
1.344                  0.9860502       -27.48838
1.348                  0.9859304       -27.65078
1.352                  0.9858007       -27.81491
1.356                  0.9856603       -27.98078
1.36                   0.9855083       -28.14838
1.364                  0.9853443       -28.31772
1.368                  0.9851675       -28.48878
1.372                  0.9849771       -28.66157
1.376                  0.9847726       -28.83608
1.38                   0.9845534       -29.01229
1.384                  0.9843188       -29.19019
1.388                  0.9840682       -29.36978
1.392                  0.9838012       -29.55103
1.396                  0.9835172       -29.73394
1.4                    0.9832156       -29.91849
1.404                  0.9828961       -30.10465
1.408                  0.9825582       -30.29242
1.412                  0.9822015       -30.48176
1.416                  0.9818258       -30.67267
1.42                   0.9814306       -30.86513
1.424                  0.9810156       -31.05911
1.428                  0.9805807       -31.25458
1.432                  0.9801257       -31.45154
1.436                  0.9796504       -31.64996
1.44                   0.9791546       -31.84982
1.444                  0.9786381       -32.05111
1.448                  0.9781013       -32.25379
1.452                  0.9775439       -32.45785
1.456                   0.976966       -32.66328
1.46                   0.9763676       -32.87005
1.464                  0.9757487       -33.07816
1.468                  0.9751099       -33.28759
1.472                  0.9744509       -33.49832
1.476                  0.9737723       -33.71034
1.48                   0.9730741       -33.92365
1.484                  0.9723567       -34.13823
1.488                  0.9716204        -34.3541
1.492                  0.9708653       -34.57122
1.496                  0.9700923       -34.78962
1.5                    0.9693013       -35.00929
1.504                  0.9684931       -35.23023
1.508                   0.967668       -35.45245
1.512                  0.9668262       -35.67597
1.516                  0.9659686       -35.90079
1.52                   0.9650953       -36.12695
1.524                  0.9642072       -36.35444
1.528                  0.9633043        -36.5833
1.532                  0.9623877       -36.81356
1.536                  0.9614573       -37.04524
1.54                   0.9605139       -37.27839
1.544                   0.959558       -37.51302
1.548                    0.95859        -37.7492
1.552                  0.9576104       -37.98696
1.556                  0.9566197       -38.22635
1.56                   0.9556181       -38.46744
1.564                  0.9546065       -38.71026
1.568                  0.9535846       -38.95489
1.572                  0.9525532       -39.20137
1.576                  0.9515125        -39.4498
1.58                   0.9504627       -39.70024
1.584                  0.9494041       -39.95276
1.588                  0.9483368       -40.20744
1.592                  0.9472611       -40.46437
1.596                   0.946177       -40.72362
1.6                    0.9450845       -40.98529
1.604                  0.9439834       -41.24948
1.608                   0.942874       -41.51628
1.612                  0.9417558       -41.78579
1.616                  0.9406287        -42.0581
1.62                   0.9394924       -42.33333
1.624                  0.9383465       -42.61157
1.628                  0.9371908       -42.89295
1.632                  0.9360245       -43.17757
1.636                  0.9348471       -43.46554
1.64                    0.933658       -43.75699
1.644                  0.9324563       -44.05202
1.648                  0.9312416       -44.35075
1.652                  0.9300124       -44.65331
1.656                  0.9287683       -44.95982
1.66                   0.9275078       -45.27039
1.664                  0.9262301       -45.58516
1.668                  0.9249337       -45.90424
1.672                  0.9236175       -46.22774
1.676                  0.9222798       -46.55581
1.68                   0.9209195       -46.88856
1.684                   0.919535       -47.22612
1.688                  0.9181247       -47.56859
1.692                  0.9166866       -47.91611
1.696                  0.9152194       -48.26879
1.7                    0.9137209       -48.62676
1.704                  0.9121893       -48.99014
1.708                  0.9106228       -49.35902
1.712                  0.9090192       -49.73354
1.716                  0.9073763       -50.11381
1.72                   0.9056922       -50.49994
1.724                  0.9039647       -50.89202
1.728                  0.9021913       -51.29018
1.732                  0.9003701       -51.69451
1.736                  0.8984983       -52.10513
1.74                   0.8965738       -52.52213
1.744                  0.8945941        -52.9456
1.748                  0.8925568       -53.37564
1.752                  0.8904592       -53.81236
1.756                  0.8882992       -54.25583
1.76                    0.886074       -54.70615
1.764                  0.8837811        -55.1634
1.768                  0.8814182       -55.62766
1.772                  0.8789825       -56.09903
1.776                  0.8764715       -56.57755
1.78                   0.8738827       -57.06334
1.784                  0.8712135       -57.55646
1.788                  0.8684614       -58.05697
1.792                  0.8656241       -58.56494
1.796                  0.8626988       -59.08046
1.8                    0.8596835       -59.60357
1.804                  0.8565753       -60.13436
1.808                  0.8533721       -60.67286
1.812                  0.8500716       -61.21917
1.816                  0.8466713       -61.77333
1.82                   0.8431691        -62.3354
1.824                  0.8395628       -62.90546
1.828                  0.8358503       -63.48354
1.832                  0.8320294       -64.06972
1.836                  0.8280983       -64.66405
1.84                   0.8240549       -65.26659
1.844                  0.8198974        -65.8774
1.848                  0.8156242       -66.49654
1.852                  0.8112334       -67.12406
1.856                  0.8067234       -67.76005
1.86                   0.8020929       -68.40455
1.864                  0.7973402       -69.05763
1.868                  0.7924641       -69.71938
1.872                  0.7874635       -70.38985
1.876                  0.7823371       -71.06911
1.88                   0.7770838       -71.75726
1.884                  0.7717029       -72.45438
1.888                  0.7661937       -73.16054
1.892                  0.7605552       -73.87585
1.896                  0.7547871        -74.6004
1.9                    0.7488887       -75.33429
1.904                    0.74286       -76.07765
1.908                  0.7367007       -76.83057
1.912                  0.7304103       -77.59321
1.916                  0.7239895       -78.36568
1.92                   0.7174381       -79.14813
1.924                  0.7107565       -79.94073
1.928                  0.7039453       -80.74364
1.932                  0.6970049       -81.55702
1.936                  0.6899361       -82.38108
1.94                   0.6827399       -83.21603
1.944                  0.6754173        -84.0621
1.948                  0.6679692       -84.91951
1.952                  0.6603973       -85.78851
1.956                  0.6527029        -86.6694
1.96                   0.6448877       -87.56246
1.964                  0.6369533       -88.46803
1.968                  0.6289018       -89.38642
1.972                  0.6207354       -90.31806
1.976                  0.6124562       -91.26329
1.98                   0.6040666       -92.22258
1.984                  0.5955695       -93.19637
1.988                  0.5869676       -94.18518
1.992                  0.5782637       -95.18954
1.996                  0.5694612       -96.21005
2                      0.5605633       -97.24731
2.004                  0.5515737       -98.30206
2.008                  0.5424962       -99.37499
2.012                  0.5333345       -100.4669
2.016                  0.5240931       -101.5787
2.02                   0.5147765       -102.7112
2.024                  0.5053891       -103.8655
2.028                  0.4959361       -105.0428
2.032                  0.4864227       -106.2441
2.036                  0.4768544       -107.4707
2.04                   0.4672369       -108.7241
2.044                  0.4575766       -110.0058
2.048                  0.4478798       -111.3174
2.052                  0.4381536       -112.6606
2.056                  0.4284051       -114.0375
2.06                   0.4186422         -115.45
2.064                   0.408873       -116.9006
2.068                  0.3991063       -118.3916
2.072                  0.3893514       -119.9258
2.076                  0.3796182       -121.5061
2.08                   0.3699175       -123.1356
2.084                  0.3602605       -124.8177
2.088                  0.3506595       -126.5563
2.092                  0.3411273       -128.3552
2.096                  0.3316784       -130.2187
2.1                    0.3223278       -132.1517
2.104                   0.313092       -134.1589
2.108                  0.3039885       -136.2456
2.112                  0.2950366       -138.4174
2.116                  0.2862569       -140.6802
2.12                   0.2776717         -143.04
2.124                  0.2693052       -145.5031
2.128                  0.2611834       -148.0756
2.132                  0.2533342       -150.7636
2.136                  0.2457874        -153.573
2.14                   0.2385748        -156.509
2.144                  0.2317299       -159.5759
2.148                  0.2252878       -162.7768
2.152                  0.2192846       -166.1131
2.156                  0.2137571       -169.5841
2.16                   0.2087422       -173.1865
2.164                  0.2042754        -176.914
2.168                  0.2003905         179.243
2.172                  0.1971178        175.2979
2.176                  0.1944833        171.2672
2.18                   0.1925072        167.1709
2.184                   0.191203        163.0315
2.188                  0.1905767        158.8736
2.192                  0.1906262        154.7225
2.196                  0.1913415        150.6032
2.2                    0.1927049        146.5396
2.204                  0.1946919        142.5533
2.208                   0.197272         138.663
2.212                  0.2004104        134.8839
2.216                  0.2040686        131.2278
2.22                   0.2082064        127.7031
2.224                  0.2127828        124.3148
2.228                  0.2177565         121.065
2.232                  0.2230876        117.9536
2.236                  0.2287373        114.9785
2.24                    0.234669         112.136
2.244                   0.240848        109.4214
2.248                  0.2472423        106.8293
2.252                  0.2538218        104.3536
2.256                  0.2605591        101.9882
2.26                   0.2674289        99.72684
2.264                  0.2744082        97.56344
2.268                  0.2814758        95.49198
2.272                  0.2886124        93.50675
2.276                  0.2958007        91.60227
2.28                   0.3030246        89.77345
2.284                  0.3102697        88.01541
2.288                  0.3175228        86.32371
2.292                   0.324772        84.69414
2.296                  0.3320063        83.12282
2.3                    0.3392161        81.60618
2.304                  0.3463922        80.14091
2.308                  0.3535267        78.72392
2.312                  0.3606121        77.35242
2.316                  0.3676418        76.02378
2.32                   0.3746098        74.73565
2.324                  0.3815105         73.4858
2.328                  0.3883392        72.27218
2.332                  0.3950914        71.09293
2.336                  0.4017632        69.94635
2.34                    0.408351        68.83082
2.344                  0.4148518        67.74489
2.348                  0.4212627        66.68717
2.352                  0.4275815        65.65646