! TOUCHSTONE file generated by CST MICROWAVE STUDIO
! Date and time: Thu May 12 15:49:34 2022
! Project name: AppElm_antenne_dipole_FR4.cst
! Parameters = {L=31.04; e=0.035; f=2.45e+09; h=1.6; i=0.8; l1=4; lambda=122.449; ls=30; wl=1.7; ws=80}
! Header version: 2018
! Port assignment regex: !\s*Touchstone port\s*([0-9]+)\s*=\s*(CST MWS port|CST DS port)\s*([0-9]+|Zmin|Zmax)\s*\(\"(.*)\"\)(\s*mode\s*([0-9]+))?.*
! Touchstone port assignment:
! Touchstone port 1 = CST MWS port 1 ("")
# GHz S MA R 50
0                      0.9999678              -0
0.004                  0.9999668     -0.05148773
0.008                  0.9999639      -0.1029713
0.012                  0.9999591      -0.1544465
0.016                  0.9999526      -0.2059092
0.02                   0.9999441      -0.2573552
0.024                  0.9999339      -0.3087806
0.028                  0.9999216      -0.3601812
0.032                  0.9999078      -0.4115529
0.036                   0.999892       -0.462892
0.04                   0.9998746      -0.5141944
0.044                  0.9998555      -0.5654563
0.048                  0.9998347       -0.616674
0.052                  0.9998122      -0.6678439
0.056                   0.999788      -0.7189623
0.06                   0.9997623       -0.770026
0.064                  0.9997351      -0.8210313
0.068                  0.9997064      -0.8719753
0.072                  0.9996764      -0.9228546
0.076                  0.9996449      -0.9736666
0.08                   0.9996122       -1.024408
0.084                  0.9995782       -1.075076
0.088                  0.9995429       -1.125669
0.092                  0.9995068       -1.176183
0.096                  0.9994693       -1.226618
0.1                     0.999431       -1.276969
0.104                  0.9993918       -1.327236
0.108                  0.9993516       -1.377418
0.112                  0.9993106       -1.427511
0.116                   0.999269       -1.477515
0.12                   0.9992268       -1.527429
0.124                   0.999184       -1.577251
0.128                  0.9991407        -1.62698
0.132                  0.9990971       -1.676617
0.136                  0.9990529       -1.726161
0.14                   0.9990089        -1.77561
0.144                  0.9989644       -1.824965
0.148                    0.99892       -1.874228
0.152                  0.9988755       -1.923396
0.156                  0.9988312       -1.972471
0.16                    0.998787       -2.021454
0.164                   0.998743       -2.070345
0.168                  0.9986994       -2.119146
0.172                  0.9986561       -2.167858
0.176                  0.9986135       -2.216482
0.18                   0.9985712       -2.265021
0.184                  0.9985297       -2.313475
0.188                   0.998489       -2.361847
0.192                  0.9984489       -2.410139
0.196                  0.9984097       -2.458354
0.2                    0.9983715       -2.506495
0.204                  0.9983343       -2.554562
0.208                  0.9982981       -2.602561
0.212                  0.9982631       -2.650495
0.216                  0.9982293       -2.698364
0.22                   0.9981968       -2.746175
0.224                  0.9981656       -2.793931
0.228                  0.9981358       -2.841634
0.232                  0.9981074       -2.889289
0.236                  0.9980805       -2.936899
0.24                   0.9980552        -2.98447
0.244                  0.9980314       -3.032006
0.248                  0.9980093        -3.07951
0.252                  0.9979889       -3.126987
0.256                  0.9979701       -3.174441
0.26                   0.9979531       -3.221878
0.264                  0.9979379       -3.269303
0.268                  0.9979247       -3.316719
0.272                  0.9979131       -3.364132
0.276                  0.9979034       -3.411547
0.28                   0.9978956        -3.45897
0.284                  0.9978899       -3.506403
0.288                  0.9978858       -3.553855
0.292                  0.9978838       -3.601329
0.296                  0.9978837        -3.64883
0.3                    0.9978855       -3.696364
0.304                  0.9978892       -3.743936
0.308                  0.9978948       -3.791551
0.312                  0.9979023       -3.839214
0.316                  0.9979119       -3.886931
0.32                   0.9979232       -3.934707
0.324                  0.9979364       -3.982546
0.328                  0.9979514       -4.030454
0.332                  0.9979683       -4.078436
0.336                   0.997987       -4.126495
0.34                   0.9980073        -4.17464
0.344                  0.9980295       -4.222871
0.348                  0.9980534       -4.271198
0.352                  0.9980788        -4.31962
0.356                  0.9981058       -4.368145
0.36                   0.9981344       -4.416777
0.364                  0.9981644        -4.46552
0.368                   0.998196       -4.514377
0.372                  0.9982289       -4.563354
0.376                  0.9982631       -4.612453
0.38                   0.9982986        -4.66168
0.384                  0.9983354       -4.711036
0.388                  0.9983731       -4.760527
0.392                   0.998412       -4.810153
0.396                  0.9984519       -4.859921
0.4                    0.9984928       -4.909831
0.404                  0.9985344       -4.959888
0.408                  0.9985768       -5.010092
0.412                    0.99862       -5.060448
0.416                  0.9986637       -5.110956
0.42                    0.998708        -5.16162
0.424                  0.9987528        -5.21244
0.428                  0.9987979        -5.26342
0.432                  0.9988433       -5.314559
0.436                  0.9988889        -5.36586
0.44                   0.9989346       -5.417323
0.444                  0.9989803       -5.468949
0.448                  0.9990261        -5.52074
0.452                  0.9990718       -5.572693
0.456                  0.9991171       -5.624812
0.46                   0.9991621       -5.677096
0.464                  0.9992067       -5.729544
0.468                  0.9992509       -5.782156
0.472                  0.9992946       -5.834931
0.476                  0.9993376       -5.887869
0.48                   0.9993799       -5.940969
0.484                  0.9994213       -5.994229
0.488                   0.999462       -6.047648
0.492                  0.9995016       -6.101226
0.496                  0.9995401       -6.154959
0.5                    0.9995777       -6.208846
0.504                   0.999614       -6.262885
0.508                   0.999649       -6.317073
0.512                  0.9996828       -6.371409
0.516                  0.9997151        -6.42589
0.52                    0.999746       -6.480513
0.524                  0.9997753       -6.535274
0.528                  0.9998031       -6.590172
0.532                  0.9998292       -6.645202
0.536                  0.9998538       -6.700361
0.54                   0.9998764       -6.755647
0.544                  0.9998973       -6.811055
0.548                  0.9999165       -6.866581
0.552                  0.9999338       -6.922223
0.556                   0.999949       -6.977976
0.56                   0.9999624       -7.033836
0.564                  0.9999737       -7.089799
0.568                   0.999983        -7.14586
0.572                  0.9999904       -7.202017
0.576                  0.9999957       -7.258263
0.58                   0.9999988       -7.314596
0.584                          1        -7.37101
0.588                  0.9999989       -7.427502
0.592                  0.9999959       -7.484067
0.596                  0.9999905       -7.540701
0.6                    0.9999832       -7.597398
0.604                  0.9999737       -7.654155
0.608                  0.9999622       -7.710967
0.612                  0.9999485       -7.767829
0.616                  0.9999327       -7.824739
0.62                   0.9999149       -7.881691
0.624                  0.9998951       -7.938681
0.628                  0.9998732       -7.995703
0.632                  0.9998494       -8.052755
0.636                  0.9998235       -8.109833
0.64                   0.9997959       -8.166932
0.644                  0.9997662       -8.224049
0.648                  0.9997348       -8.281179
0.652                  0.9997015       -8.338318
0.656                  0.9996667       -8.395463
0.66                     0.99963       -8.452613
0.664                  0.9995916       -8.509762
0.668                  0.9995519       -8.566905
0.672                  0.9995105       -8.624042
0.676                  0.9994676        -8.68117
0.68                   0.9994234       -8.738284
0.684                   0.999378       -8.795385
0.688                  0.9993313       -8.852467
0.692                  0.9992835       -8.909528
0.696                  0.9992345        -8.96657
0.7                    0.9991845       -9.023588
0.704                  0.9991336       -9.080577
0.708                  0.9990819       -9.137542
0.712                  0.9990294       -9.194478
0.716                  0.9989762       -9.251385
0.72                   0.9989225       -9.308262
0.724                  0.9988683       -9.365107
0.728                  0.9988136       -9.421923
0.732                  0.9987586       -9.478707
0.736                  0.9987035        -9.53546
0.74                   0.9986481        -9.59218
0.744                  0.9985926       -9.648872
0.748                  0.9985373       -9.705533
0.752                  0.9984821       -9.762165
0.756                  0.9984272       -9.818769
0.76                   0.9983725       -9.875347
0.764                  0.9983183         -9.9319
0.768                  0.9982646       -9.988431
0.772                  0.9982115       -10.04494
0.776                   0.998159       -10.10143
0.78                   0.9981073       -10.15791
0.784                  0.9980565       -10.21437
0.788                  0.9980066       -10.27082
0.792                  0.9979577       -10.32727
0.796                  0.9979099       -10.38371
0.8                    0.9978634       -10.44016
0.804                  0.9978181        -10.4966
0.808                  0.9977742       -10.55305
0.812                  0.9977316       -10.60952
0.816                  0.9976905       -10.66601
0.82                    0.997651       -10.72251
0.824                  0.9976131       -10.77904
0.828                  0.9975769       -10.83561
0.832                  0.9975424       -10.89221
0.836                  0.9975097       -10.94885
0.84                   0.9974789       -11.00553
0.844                  0.9974499       -11.06227
0.848                   0.997423       -11.11907
0.852                   0.997398       -11.17594
0.856                   0.997375       -11.23287
0.86                    0.997354       -11.28988
0.864                  0.9973351       -11.34697
0.868                  0.9973184       -11.40415
0.872                  0.9973039       -11.46143
0.876                  0.9972915       -11.51881
0.88                   0.9972813       -11.57629
0.884                  0.9972733       -11.63389
0.888                  0.9972675       -11.69161
0.892                  0.9972638       -11.74946
0.896                  0.9972623       -11.80745
0.9                    0.9972631       -11.86557
0.904                  0.9972661       -11.92385
0.908                  0.9972712       -11.98227
0.912                  0.9972783       -12.04086
0.916                  0.9972878       -12.09962
0.92                   0.9972993       -12.15855
0.924                  0.9973129       -12.21766
0.928                  0.9973284       -12.27696
0.932                   0.997346       -12.33645
0.936                  0.9973655       -12.39615
0.94                   0.9973871       -12.45605
0.944                  0.9974103       -12.51616
0.948                  0.9974354       -12.57649
0.952                  0.9974621       -12.63704
0.956                  0.9974908       -12.69783
0.96                   0.9975208       -12.75885
0.964                  0.9975526       -12.82011
0.968                  0.9975856       -12.88162
0.972                  0.9976201       -12.94338
0.976                  0.9976561        -13.0054
0.98                    0.997693       -13.06768
0.984                  0.9977312       -13.13023
0.988                  0.9977705       -13.19305
0.992                  0.9978107       -13.25614
0.996                  0.9978518       -13.31951
1                      0.9978937       -13.38316
1.004                  0.9979363       -13.44711
1.008                  0.9979793       -13.51134
1.012                   0.998023       -13.57587
1.016                  0.9980669       -13.64069
1.02                   0.9981111       -13.70581
1.024                  0.9981556       -13.77123
1.028                  0.9981999       -13.83696
1.032                  0.9982444       -13.90299
1.036                  0.9982886       -13.96933
1.04                   0.9983326       -14.03597
1.044                  0.9983761       -14.10294
1.048                  0.9984192       -14.17023
1.052                  0.9984617       -14.23779
1.056                  0.9985035       -14.30568
1.06                   0.9985443        -14.3739
1.064                  0.9985843       -14.44245
1.068                  0.9986234       -14.51127
1.072                   0.998661       -14.58042
1.076                  0.9986976       -14.64987
1.08                   0.9987328       -14.71968
1.084                  0.9987664       -14.78973
1.088                  0.9987985       -14.86013
1.092                  0.9988289       -14.93081
1.096                  0.9988576       -15.00185
1.1                    0.9988844       -15.07312
1.104                  0.9989093       -15.14476
1.108                  0.9989321       -15.21664
1.112                  0.9989527       -15.28882
1.116                  0.9989711       -15.36133
1.12                   0.9989872       -15.43409
1.124                  0.9990009       -15.50714
1.128                  0.9990122        -15.5805
1.132                  0.9990208       -15.65412
1.136                  0.9990269       -15.72802
1.14                   0.9990304       -15.80219
1.144                  0.9990311       -15.87662
1.148                  0.9990289       -15.95132
1.152                  0.9990239       -16.02627
1.156                  0.9990161       -16.10147
1.16                   0.9990054       -16.17693
1.164                  0.9989916       -16.25262
1.168                  0.9989748       -16.32856
1.172                  0.9989549       -16.40473
1.176                  0.9989321       -16.48113
1.18                    0.998906       -16.55776
1.184                  0.9988768        -16.6346
1.188                  0.9988446       -16.71166
1.192                  0.9988091       -16.78893
1.196                  0.9987707        -16.8664
1.2                     0.998729       -16.94407
1.204                  0.9986841       -17.02193
1.208                  0.9986361       -17.09999
1.212                  0.9985851       -17.17822
1.216                  0.9985309       -17.25664
1.22                   0.9984737       -17.33523
1.224                  0.9984135       -17.41398
1.228                  0.9983503       -17.49291
1.232                  0.9982841       -17.57199
1.236                  0.9982151       -17.65123
1.24                    0.998143       -17.73062
1.244                  0.9980682       -17.81016
1.248                  0.9979909       -17.88983
1.252                  0.9979107       -17.96965
1.256                  0.9978279        -18.0496
1.26                   0.9977426       -18.12969
1.264                  0.9976548        -18.2099
1.268                  0.9975647       -18.29024
1.272                  0.9974721        -18.3707
1.276                  0.9973775       -18.45127
1.28                   0.9972807       -18.53197
1.284                  0.9971818       -18.61278
1.288                   0.997081        -18.6937
1.292                  0.9969784       -18.77474
1.296                  0.9968741       -18.85588
1.3                    0.9967681       -18.93713
1.304                  0.9966606       -19.01848
1.308                  0.9965517       -19.09995
1.312                  0.9964415       -19.18152
1.316                  0.9963302       -19.26319
1.32                   0.9962178       -19.34497
1.324                  0.9961044       -19.42687
1.328                  0.9959903       -19.50886
1.332                  0.9958753       -19.59097
1.336                  0.9957598       -19.67319
1.34                    0.995644       -19.75551
1.344                  0.9955277       -19.83796
1.348                  0.9954113       -19.92052
1.352                  0.9952946        -20.0032
1.356                  0.9951781         -20.086
1.36                   0.9950617       -20.16894
1.364                  0.9949456         -20.252
1.368                  0.9948299        -20.3352
1.372                  0.9947146       -20.41854
1.376                     0.9946       -20.50202
1.38                   0.9944862       -20.58565
1.384                  0.9943731       -20.66944
1.388                  0.9942611       -20.75339
1.392                  0.9941502       -20.83751
1.396                  0.9940405       -20.92181
1.4                     0.993932       -21.00628
1.404                  0.9938248       -21.09095
1.408                  0.9937193       -21.17581
1.412                  0.9936153       -21.26088
1.416                  0.9935128       -21.34616
1.42                   0.9934122       -21.43166
1.424                  0.9933135       -21.51739
1.428                  0.9932165       -21.60336
1.432                  0.9931217       -21.68958
1.436                  0.9930289       -21.77605
1.44                   0.9929381        -21.8628
1.444                  0.9928496       -21.94982
1.448                  0.9927633       -22.03713
1.452                  0.9926791       -22.12473
1.456                  0.9925973       -22.21265
1.46                    0.992518       -22.30088
1.464                   0.992441       -22.38945
1.468                  0.9923663       -22.47836
1.472                  0.9922941       -22.56762
1.476                  0.9922243       -22.65725
1.48                    0.992157       -22.74725
1.484                  0.9920921       -22.83765
1.488                  0.9920296       -22.92844
1.492                  0.9919695       -23.01964
1.496                  0.9919119       -23.11127
1.5                    0.9918566       -23.20333
1.504                  0.9918036       -23.29584
1.508                  0.9917529       -23.38881
1.512                  0.9917046       -23.48225
1.516                  0.9916584       -23.57617
1.52                   0.9916142       -23.67059
1.524                  0.9915723       -23.76552
1.528                  0.9915323       -23.86096
1.532                  0.9914943       -23.95694
1.536                  0.9914579       -24.05346
1.54                   0.9914235       -24.15053
1.544                  0.9913906       -24.24817
1.548                  0.9913593       -24.34638
1.552                  0.9913295       -24.44519
1.556                  0.9913009       -24.54459
1.56                   0.9912736       -24.64461
1.564                  0.9912473       -24.74524
1.568                   0.991222        -24.8465
1.572                  0.9911975       -24.94841
1.576                  0.9911735       -25.05097
1.58                   0.9911501       -25.15419
1.584                  0.9911271       -25.25808
1.588                  0.9911042       -25.36265
1.592                  0.9910813       -25.46791
1.596                  0.9910585       -25.57387
1.6                    0.9910351       -25.68053
1.604                  0.9910115       -25.78791
1.608                   0.990987       -25.89601
1.612                  0.9909619       -26.00484
1.616                  0.9909356       -26.11441
1.62                   0.9909081       -26.22472
1.624                  0.9908793       -26.33578
1.628                   0.990849        -26.4476
1.632                  0.9908167       -26.56018
1.636                  0.9907824       -26.67353
1.64                   0.9907462       -26.78766
1.644                  0.9907074       -26.90255
1.648                  0.9906661       -27.01824
1.652                   0.990622       -27.13471
1.656                   0.990575       -27.25197
1.66                   0.9905248       -27.37003
1.664                  0.9904711       -27.48888
1.668                   0.990414       -27.60853
1.672                  0.9903531       -27.72899
1.676                  0.9902883       -27.85024
1.68                   0.9902191       -27.97231
1.684                  0.9901458       -28.09518
1.688                  0.9900679       -28.21885
1.692                  0.9899852       -28.34334
1.696                  0.9898976       -28.46864
1.7                    0.9898048       -28.59474
1.704                  0.9897069       -28.72166
1.708                  0.9896035       -28.84938
1.712                  0.9894944       -28.97791
1.716                  0.9893795       -29.10724
1.72                   0.9892586       -29.23738
1.724                  0.9891317       -29.36832
1.728                  0.9889984       -29.50006
1.732                  0.9888587       -29.63261
1.736                  0.9887124       -29.76594
1.74                   0.9885594       -29.90008
1.744                  0.9883995         -30.035
1.748                  0.9882325        -30.1707
1.752                  0.9880586        -30.3072
1.756                  0.9878773       -30.44448
1.76                   0.9876887       -30.58253
1.764                  0.9874927       -30.72136
1.768                   0.987289       -30.86096
1.772                  0.9870777       -31.00132
1.776                  0.9868588       -31.14245
1.78                   0.9866321       -31.28433
1.784                  0.9863973       -31.42698
1.788                  0.9861547       -31.57037
1.792                  0.9859041       -31.71451
1.796                  0.9856455       -31.85939
1.8                    0.9853787       -32.00501
1.804                  0.9851038       -32.15137
1.808                  0.9848207       -32.29847
1.812                  0.9845296       -32.44628
1.816                  0.9842302       -32.59482
1.82                   0.9839225       -32.74409
1.824                  0.9836068       -32.89408
1.828                  0.9832827       -33.04477
1.832                  0.9829507       -33.19618
1.836                  0.9826104        -33.3483
1.84                    0.982262       -33.50113
1.844                  0.9819055       -33.65467
1.848                  0.9815409       -33.80891
1.852                  0.9811683       -33.96386
1.856                   0.980788        -34.1195
1.86                   0.9803997       -34.27584
1.864                  0.9800036       -34.43289
1.868                  0.9795999       -34.59063
1.872                  0.9791883       -34.74908
1.876                  0.9787694       -34.90823
1.88                    0.978343       -35.06809
1.884                  0.9779091       -35.22864
1.888                  0.9774681       -35.38991
1.892                    0.97702       -35.55188
1.896                  0.9765648       -35.71458
1.9                    0.9761027       -35.87799
1.904                  0.9756337       -36.04212
1.908                  0.9751581       -36.20698
1.912                   0.974676       -36.37257
1.916                  0.9741874        -36.5389
1.92                   0.9736924       -36.70599
1.924                  0.9731913       -36.87382
1.928                  0.9726844       -37.04241
1.932                  0.9721713       -37.21178
1.936                  0.9716526       -37.38192
1.94                   0.9711282       -37.55287
1.944                  0.9705983       -37.72461
1.948                  0.9700632       -37.89716
1.952                  0.9695226       -38.07055
1.956                   0.968977       -38.24477
1.96                   0.9684267       -38.41985
1.964                  0.9678713       -38.59579
1.968                  0.9673113       -38.77262
1.972                  0.9667467       -38.95035
1.976                  0.9661776         -39.129
1.98                   0.9656041       -39.30858
1.984                  0.9650265       -39.48912
1.988                  0.9644447       -39.67062
1.992                  0.9638587       -39.85312
1.996                  0.9632689       -40.03664
2                      0.9626752       -40.22119
2.004                  0.9620777        -40.4068
2.008                  0.9614765       -40.59349
2.012                  0.9608716       -40.78127
2.016                  0.9602631        -40.9702
2.02                   0.9596512       -41.16027
2.024                  0.9590356       -41.35153
2.028                  0.9584167       -41.54399
2.032                  0.9577942       -41.73768
2.036                  0.9571683       -41.93265
2.04                   0.9565389        -42.1289
2.044                   0.955906       -42.32647
2.048                  0.9552696       -42.52539
2.052                  0.9546296        -42.7257
2.056                  0.9539861       -42.92742
2.06                   0.9533389       -43.13059
2.064                  0.9526878       -43.33523
2.068                  0.9520331       -43.54138
2.072                  0.9513743       -43.74909
2.076                  0.9507115       -43.95837
2.08                   0.9500445       -44.16926
2.084                  0.9493732        -44.3818
2.088                  0.9486972       -44.59603
2.092                  0.9480167       -44.81198
2.096                  0.9473313       -45.02969
2.1                    0.9466407       -45.24919
2.104                  0.9459449       -45.47053
2.108                  0.9452435       -45.69373
2.112                  0.9445362       -45.91885
2.116                   0.943823        -46.1459
2.12                   0.9431033       -46.37494
2.124                  0.9423769       -46.60601
2.128                  0.9416435       -46.83914
2.132                  0.9409028       -47.07437
2.136                  0.9401544       -47.31173
2.14                    0.939398       -47.55128
2.144                   0.938633       -47.79305
2.148                  0.9378592       -48.03708
2.152                  0.9370761        -48.2834
2.156                  0.9362834       -48.53207
2.16                   0.9354805       -48.78311
2.164                  0.9346669       -49.03657
2.168                  0.9338424       -49.29248
2.172                  0.9330061        -49.5509
2.176                  0.9321578       -49.81184
2.18                   0.9312968       -50.07537
2.184                  0.9304226        -50.3415
2.188                  0.9295346        -50.6103
2.192                  0.9286324       -50.88179
2.196                  0.9277154         -51.156
2.2                    0.9267829       -51.43298
2.204                  0.9258342       -51.71278
2.208                   0.924869       -51.99541
2.212                  0.9238863       -52.28093
2.216                  0.9228857       -52.56936
2.22                   0.9218665       -52.86076
2.224                  0.9208278       -53.15515
2.228                  0.9197692       -53.45257
2.232                  0.9186901       -53.75305
2.236                  0.9175895       -54.05664
2.24                    0.916467       -54.36335
2.244                  0.9153216       -54.67324
2.248                  0.9141527       -54.98634
2.252                  0.9129596       -55.30268
2.256                  0.9117416        -55.6223
2.26                    0.910498       -55.94521
2.264                  0.9092279       -56.27147
2.268                  0.9079307        -56.6011
2.272                  0.9066055       -56.93414
2.276                  0.9052517        -57.2706
2.28                   0.9038683       -57.61055
2.284                  0.9024549       -57.95397
2.288                  0.9010104       -58.30095
2.292                  0.8995342       -58.65147
2.296                  0.8980257       -59.00557
2.3                    0.8964838       -59.36331
2.304                  0.8949079       -59.72468
2.308                  0.8932974       -60.08975
2.312                   0.891651       -60.45852
2.316                  0.8899686       -60.83101
2.32                   0.8882492       -61.20726
2.324                  0.8864921        -61.5873
2.328                  0.8846963       -61.97116
2.332                  0.8828613       -62.35887
2.336                  0.8809864       -62.75043
2.34                   0.8790708        -63.1459
2.344                  0.8771138        -63.5453
2.348                  0.8751147       -63.94864
2.352                  0.8730727       -64.35596