! TOUCHSTONE file generated by CST MICROWAVE STUDIO
! Date and time: Thu May 12 15:49:41 2022
! Project name: AppElm_antenne_dipole_FR4.cst
! Parameters = {L=46.56; e=0.035; f=2.45e+09; h=1.6; i=0.8; l1=4; lambda=122.449; ls=30; wl=1.7; ws=80}
! Header version: 2018
! Port assignment regex: !\s*Touchstone port\s*([0-9]+)\s*=\s*(CST MWS port|CST DS port)\s*([0-9]+|Zmin|Zmax)\s*\(\"(.*)\"\)(\s*mode\s*([0-9]+))?.*
! Touchstone port assignment:
! Touchstone port 1 = CST MWS port 1 ("")
# GHz S MA R 50
0                      0.9975001              -0
0.004                  0.9975026     -0.05478689
0.008                  0.9975104      -0.1095937
0.012                  0.9975232      -0.1644403
0.016                  0.9975411      -0.2193462
0.02                   0.9975639      -0.2743312
0.024                  0.9975918       -0.329414
0.028                  0.9976243      -0.3846137
0.032                  0.9976616      -0.4399484
0.036                  0.9977032      -0.4954359
0.04                   0.9977493      -0.5510934
0.044                  0.9977994      -0.6069374
0.048                  0.9978534      -0.6629837
0.052                  0.9979113       -0.719247
0.056                  0.9979725      -0.7757418
0.06                   0.9980369      -0.8324812
0.064                  0.9981043      -0.8894773
0.068                  0.9981745      -0.9467415
0.072                   0.998247       -1.004284
0.076                  0.9983214       -1.062114
0.08                   0.9983978       -1.120239
0.084                  0.9984756       -1.178667
0.088                  0.9985546       -1.237403
0.092                  0.9986343       -1.296452
0.096                  0.9987144       -1.355817
0.1                    0.9987948         -1.4155
0.104                  0.9988751       -1.475502
0.108                  0.9989548       -1.535822
0.112                  0.9990336        -1.59646
0.116                  0.9991114       -1.657413
0.12                   0.9991876       -1.718676
0.124                   0.999262       -1.780245
0.128                  0.9993344       -1.842113
0.132                  0.9994044       -1.904274
0.136                  0.9994715       -1.966719
0.14                   0.9995358       -2.029438
0.144                  0.9995968       -2.092421
0.148                  0.9996542       -2.155657
0.152                   0.999708       -2.219133
0.156                  0.9997578       -2.282837
0.16                   0.9998034       -2.346754
0.164                  0.9998445        -2.41087
0.168                  0.9998813        -2.47517
0.172                  0.9999133       -2.539637
0.176                  0.9999404       -2.604256
0.18                   0.9999626       -2.669008
0.184                  0.9999797       -2.733878
0.188                  0.9999917       -2.798847
0.192                  0.9999984       -2.863898
0.196                          1       -2.929012
0.2                    0.9999962       -2.994171
0.204                  0.9999873       -3.059357
0.208                  0.9999732       -3.124551
0.212                  0.9999539       -3.189737
0.216                  0.9999295       -3.254896
0.22                   0.9999001        -3.32001
0.224                  0.9998658       -3.385062
0.228                  0.9998267       -3.450036
0.232                  0.9997831       -3.514915
0.236                  0.9997348       -3.579684
0.24                   0.9996824       -3.644327
0.244                  0.9996261       -3.708831
0.248                  0.9995658       -3.773182
0.252                   0.999502       -3.837365
0.256                  0.9994348       -3.901372
0.26                   0.9993646       -3.965189
0.264                  0.9992916       -4.028808
0.268                  0.9992162        -4.09222
0.272                  0.9991383       -4.155416
0.276                  0.9990587        -4.21839
0.28                   0.9989776       -4.281137
0.284                  0.9988951       -4.343651
0.288                   0.998812        -4.40593
0.292                  0.9987282       -4.467972
0.296                  0.9986441       -4.529778
0.3                    0.9985601       -4.591346
0.304                  0.9984767       -4.652679
0.308                   0.998394       -4.713781
0.312                  0.9983126       -4.774654
0.316                  0.9982325       -4.835306
0.32                   0.9981544       -4.895742
0.324                  0.9980784       -4.955972
0.328                  0.9980047       -5.016005
0.332                  0.9979338        -5.07585
0.336                   0.997866        -5.13552
0.34                   0.9978015       -5.195027
0.344                  0.9977406       -5.254385
0.348                  0.9976835       -5.313608
0.352                  0.9976304       -5.372713
0.356                  0.9975819       -5.431715
0.36                   0.9975377       -5.490632
0.364                  0.9974983       -5.549482
0.368                  0.9974638       -5.608286
0.372                  0.9974341       -5.667061
0.376                  0.9974097       -5.725826
0.38                   0.9973907       -5.784603
0.384                  0.9973769       -5.843414
0.388                  0.9973684        -5.90228
0.392                  0.9973655        -5.96122
0.396                  0.9973681       -6.020255
0.4                     0.997376       -6.079412
0.404                  0.9973895       -6.138708
0.408                  0.9974082       -6.198166
0.412                  0.9974323       -6.257807
0.416                  0.9974618       -6.317652
0.42                   0.9974961       -6.377722
0.424                  0.9975356       -6.438037
0.428                  0.9975797       -6.498618
0.432                  0.9976285       -6.559482
0.436                  0.9976818        -6.62065
0.44                   0.9977393       -6.682136
0.444                  0.9978006       -6.743962
0.448                  0.9978658       -6.806142
0.452                  0.9979345       -6.868688
0.456                   0.998006        -6.93162
0.46                   0.9980807       -6.994947
0.464                  0.9981579       -7.058681
0.468                  0.9982372       -7.122835
0.472                  0.9983186       -7.187418
0.476                  0.9984013       -7.252439
0.48                   0.9984852       -7.317904
0.484                    0.99857       -7.383819
0.488                  0.9986553       -7.450191
0.492                  0.9987407        -7.51702
0.496                  0.9988256        -7.58431
0.5                    0.9989102       -7.652061
0.504                  0.9989935       -7.720274
0.508                  0.9990756       -7.788945
0.512                   0.999156        -7.85807
0.516                  0.9992341       -7.927648
0.52                   0.9993098        -7.99767
0.524                  0.9993827        -8.06813
0.528                  0.9994526       -8.139019
0.532                  0.9995189       -8.210328
0.536                  0.9995816       -8.282047
0.54                     0.99964       -8.354164
0.544                  0.9996943       -8.426664
0.548                  0.9997438       -8.499536
0.552                  0.9997886       -8.572763
0.556                  0.9998283       -8.646331
0.56                   0.9998627       -8.720223
0.564                  0.9998916       -8.794422
0.568                  0.9999149       -8.868911
0.572                  0.9999322       -8.943669
0.576                  0.9999438        -9.01868
0.58                   0.9999492       -9.093923
0.584                  0.9999487       -9.169378
0.588                  0.9999418       -9.245025
0.592                   0.999929       -9.320846
0.596                  0.9999097        -9.39682
0.6                    0.9998843       -9.472926
0.604                  0.9998527       -9.549143
0.608                  0.9998152       -9.625452
0.612                  0.9997716       -9.701833
0.616                  0.9997221       -9.778268
0.62                   0.9996669       -9.854735
0.624                  0.9996061       -9.931217
0.628                  0.9995399        -10.0077
0.632                  0.9994686       -10.08416
0.636                  0.9993923       -10.16059
0.64                   0.9993113       -10.23696
0.644                  0.9992257       -10.31327
0.648                   0.999136        -10.3895
0.652                  0.9990424       -10.46564
0.656                  0.9989453       -10.54168
0.66                   0.9988451        -10.6176
0.664                  0.9987419       -10.69339
0.668                  0.9986362       -10.76906
0.672                  0.9985284       -10.84459
0.676                  0.9984187       -10.91998
0.68                   0.9983078       -10.99523
0.684                  0.9981958       -11.07033
0.688                  0.9980831       -11.14528
0.692                  0.9979705       -11.22008
0.696                  0.9978579       -11.29473
0.7                    0.9977461       -11.36925
0.704                  0.9976352       -11.44363
0.708                  0.9975257       -11.51788
0.712                  0.9974182       -11.59201
0.716                  0.9973127       -11.66603
0.72                   0.9972097       -11.73996
0.724                  0.9971099       -11.81379
0.728                  0.9970132       -11.88756
0.732                  0.9969202       -11.96126
0.736                  0.9968311       -12.03494
0.74                   0.9967464       -12.10858
0.744                  0.9966663       -12.18223
0.748                  0.9965909        -12.2559
0.752                  0.9965207        -12.3296
0.756                   0.996456       -12.40337
0.76                   0.9963966       -12.47723
0.764                   0.996343        -12.5512
0.768                  0.9962954        -12.6253
0.772                  0.9962537       -12.69957
0.776                  0.9962183       -12.77403
0.78                   0.9961891        -12.8487
0.784                  0.9961661       -12.92362
0.788                  0.9961495       -12.99881
0.792                  0.9961395        -13.0743
0.796                  0.9961355       -13.15012
0.8                    0.9961379       -13.22629
0.804                  0.9961464       -13.30285
0.808                   0.996161       -13.37982
0.812                  0.9961816       -13.45723
0.816                  0.9962079       -13.53511
0.82                   0.9962398       -13.61347
0.824                  0.9962773       -13.69236
0.828                  0.9963197       -13.77179
0.832                   0.996367       -13.85178
0.836                  0.9964189       -13.93237
0.84                    0.996475       -14.01357
0.844                   0.996535       -14.09541
0.848                  0.9965987        -14.1779
0.852                  0.9966654       -14.26107
0.856                   0.996735       -14.34493
0.86                    0.996807        -14.4295
0.864                   0.996881        -14.5148
0.868                  0.9969564       -14.60082
0.872                   0.997033        -14.6876
0.876                    0.99711       -14.77514
0.88                   0.9971874       -14.86345
0.884                  0.9972643       -14.95253
0.888                  0.9973404       -15.04239
0.892                  0.9974153       -15.13304
0.896                  0.9974883       -15.22447
0.9                    0.9975591        -15.3167
0.904                   0.997627       -15.40971
0.908                  0.9976919        -15.5035
0.912                   0.997753       -15.59807
0.916                    0.99781       -15.69342
0.92                   0.9978623       -15.78953
0.924                  0.9979097        -15.8864
0.928                  0.9979515       -15.98401
0.932                  0.9979876       -16.08237
0.936                  0.9980174       -16.18143
0.94                   0.9980404       -16.28121
0.944                  0.9980566       -16.38167
0.948                  0.9980654       -16.48281
0.952                  0.9980666        -16.5846
0.956                  0.9980599       -16.68702
0.96                    0.998045       -16.79006
0.964                  0.9980219        -16.8937
0.968                  0.9979899        -16.9979
0.972                  0.9979494       -17.10265
0.976                     0.9979       -17.20793
0.98                   0.9978415       -17.31371
0.984                   0.997774       -17.41997
0.988                  0.9976972       -17.52669
0.992                  0.9976114       -17.63383
0.996                  0.9975164       -17.74139
1                      0.9974124       -17.84932
1.004                  0.9972992       -17.95761
1.008                  0.9971772       -18.06624
1.012                  0.9970464       -18.17518
1.016                  0.9969071       -18.28443
1.02                   0.9967592       -18.39393
1.024                  0.9966034       -18.50366
1.028                  0.9964395       -18.61365
1.032                  0.9962681       -18.72386
1.036                  0.9960894       -18.83424
1.04                   0.9959037        -18.9448
1.044                  0.9957115       -19.05551
1.048                  0.9955131       -19.16637
1.052                  0.9953089       -19.27738
1.056                  0.9950993       -19.38852
1.06                   0.9948848       -19.49977
1.064                   0.994666       -19.61113
1.068                  0.9944433        -19.7226
1.072                  0.9942171       -19.83418
1.076                  0.9939879       -19.94584
1.08                   0.9937564       -20.05763
1.084                   0.993523       -20.16948
1.088                  0.9932881        -20.2815
1.092                  0.9930526       -20.39362
1.096                  0.9928166       -20.50586
1.1                    0.9925809       -20.61825
1.104                  0.9923459       -20.73082
1.108                  0.9921122       -20.84354
1.112                  0.9918802       -20.95646
1.116                  0.9916504       -21.06959
1.12                   0.9914234       -21.18292
1.124                  0.9911996       -21.29655
1.128                  0.9909795       -21.41046
1.132                  0.9907634       -21.52469
1.136                  0.9905518       -21.63926
1.14                   0.9903449       -21.75421
1.144                  0.9901433       -21.86957
1.148                  0.9899472       -21.98539
1.152                  0.9897569       -22.10169
1.156                  0.9895727       -22.21852
1.16                   0.9893947       -22.33592
1.164                  0.9892232       -22.45393
1.168                  0.9890583       -22.57259
1.172                  0.9889002       -22.69195
1.176                  0.9887489       -22.81205
1.18                   0.9886043       -22.93295
1.184                  0.9884667       -23.05467
1.188                  0.9883359       -23.17728
1.192                  0.9882116       -23.30082
1.196                   0.988094       -23.42533
1.2                     0.987983       -23.55086
1.204                   0.987878       -23.67747
1.208                  0.9877789       -23.80519
1.212                  0.9876855       -23.93408
1.216                  0.9875974       -24.06418
1.22                   0.9875142       -24.19554
1.224                  0.9874356       -24.32819
1.228                   0.987361       -24.46219
1.232                  0.9872899       -24.59758
1.236                  0.9872219       -24.73439
1.24                   0.9871563       -24.87267
1.244                  0.9870926       -25.01246
1.248                  0.9870301       -25.15379
1.252                  0.9869683       -25.29669
1.256                  0.9869065       -25.44121
1.26                   0.9868435       -25.58737
1.264                  0.9867792        -25.7352
1.268                  0.9867127       -25.88473
1.272                   0.986643       -26.03598
1.276                  0.9865695       -26.18897
1.28                   0.9864914       -26.34374
1.284                  0.9864078       -26.50029
1.288                  0.9863179       -26.65864
1.292                   0.986221       -26.81881
1.296                  0.9861161       -26.98081
1.3                    0.9860026       -27.14464
1.304                  0.9858794       -27.31031
1.308                  0.9857459       -27.47783
1.312                  0.9856012       -27.64721
1.316                  0.9854445       -27.81843
1.32                    0.985275        -27.9915
1.324                  0.9850922       -28.16642
1.328                  0.9848949       -28.34316
1.332                  0.9846827       -28.52174
1.336                  0.9844548       -28.70214
1.34                   0.9842106       -28.88436
1.344                  0.9839493       -29.06836
1.348                  0.9836704       -29.25414
1.352                  0.9833734       -29.44168
1.356                  0.9830576       -29.63097
1.36                   0.9827226       -29.82198
1.364                  0.9823679        -30.0147
1.368                  0.9819931        -30.2091
1.372                  0.9815977       -30.40517
1.376                  0.9811814       -30.60288
1.38                    0.980744       -30.80221
1.384                  0.9802852       -31.00313
1.388                  0.9798048       -31.20563
1.392                  0.9793025       -31.40967
1.396                  0.9787782       -31.61525
1.4                     0.978232       -31.82233
1.404                  0.9776637        -32.0309
1.408                  0.9770735       -32.24093
1.412                  0.9764613       -32.45241
1.416                  0.9758273       -32.66532
1.42                   0.9751715       -32.87964
1.424                  0.9744943       -33.09535
1.428                  0.9737958       -33.31245
1.432                  0.9730761       -33.53093
1.436                  0.9723359       -33.75076
1.44                   0.9715753       -33.97196
1.444                  0.9707947       -34.19452
1.448                  0.9699943       -34.41843
1.452                   0.969175        -34.6437
1.456                   0.968337       -34.87032
1.46                   0.9674806       -35.09831
1.464                  0.9666067       -35.32769
1.468                  0.9657155       -35.55846
1.472                  0.9648077       -35.79065
1.476                  0.9638838       -36.02429
1.48                   0.9629443       -36.25938
1.484                  0.9619898       -36.49597
1.488                  0.9610208       -36.73409
1.492                   0.960038       -36.97379
1.496                  0.9590417        -37.2151
1.5                    0.9580326       -37.45806
1.504                  0.9570111       -37.70274
1.508                  0.9559779        -37.9492
1.512                   0.954933       -38.19748
1.516                  0.9538773       -38.44766
1.52                    0.952811        -38.6998
1.524                  0.9517345       -38.95398
1.528                   0.950648       -39.21029
1.532                  0.9495518       -39.46879
1.536                  0.9484462       -39.72958
1.54                   0.9473313       -39.99275
1.544                   0.946207       -40.25839
1.548                  0.9450738        -40.5266
1.552                  0.9439312       -40.79751
1.556                  0.9427794       -41.07117
1.56                   0.9416181       -41.34773
1.564                  0.9404472       -41.62731
1.568                  0.9392661       -41.91001
1.572                  0.9380744       -42.19594
1.576                   0.936872       -42.48524
1.58                   0.9356578       -42.77802
1.584                  0.9344316       -43.07443
1.588                  0.9331923       -43.37457
1.592                  0.9319392       -43.67859
1.596                  0.9306713       -43.98662
1.6                    0.9293876       -44.29879
1.604                  0.9280869       -44.61524
1.608                   0.926768        -44.9361
1.612                  0.9254297       -45.26151
1.616                  0.9240704       -45.59162
1.62                   0.9226886       -45.92654
1.624                   0.921283       -46.26643
1.628                  0.9198515       -46.61141
1.632                  0.9183925       -46.96163
1.636                  0.9169041       -47.31721
1.64                   0.9153843        -47.6783
1.644                  0.9138313       -48.04504
1.648                  0.9122426       -48.41754
1.652                  0.9106162       -48.79594
1.656                  0.9089498       -49.18037
1.66                    0.907241       -49.57095
1.664                  0.9054876       -49.96781
1.668                  0.9036869       -50.37108
1.672                  0.9018363       -50.78087
1.676                  0.8999334       -51.19729
1.68                   0.8979754       -51.62047
1.684                  0.8959598        -52.0505
1.688                  0.8938837       -52.48752
1.692                  0.8917443       -52.93161
1.696                  0.8895388       -53.38289
1.7                    0.8872646       -53.84145
1.704                  0.8849186       -54.30739
1.708                  0.8824979       -54.78081
1.712                       0.88       -55.26179
1.716                  0.8774214       -55.75044
1.72                   0.8747599       -56.24682
1.724                  0.8720122       -56.75103
1.728                  0.8691755       -57.26315
1.732                  0.8662471       -57.78324
1.736                   0.863224       -58.31142
1.74                   0.8601034       -58.84774
1.744                   0.856883       -59.39225
1.748                  0.8535595       -59.94505
1.752                  0.8501305        -60.5062
1.756                  0.8465933       -61.07578
1.76                   0.8429453       -61.65383
1.764                  0.8391842       -62.24042
1.768                  0.8353073       -62.83564
1.772                  0.8313126       -63.43954
1.776                  0.8271976       -64.05217
1.78                     0.82296       -64.67362
1.784                  0.8185979       -65.30394
1.788                  0.8141092       -65.94319
1.792                  0.8094919       -66.59146
1.796                  0.8047442       -67.24879
1.8                    0.7998645       -67.91527
1.804                   0.794851       -68.59097
1.808                  0.7897023       -69.27597
1.812                  0.7844171       -69.97033
1.816                   0.778994       -70.67415
1.82                   0.7734319       -71.38752
1.824                  0.7677299       -72.11052
1.828                   0.761887       -72.84327
1.832                  0.7559024       -73.58585
1.836                  0.7497757       -74.33838
1.84                   0.7435063       -75.10097
1.844                   0.737094       -75.87377
1.848                  0.7305383       -76.65692
1.852                  0.7238396       -77.45052
1.856                  0.7169979       -78.25477
1.86                   0.7100132        -79.0698
1.864                  0.7028863       -79.89585
1.868                  0.6956178       -80.73306
1.872                  0.6882081       -81.58167
1.876                  0.6806586       -82.44192
1.88                     0.67297       -83.31403
1.884                  0.6651439       -84.19826
1.888                  0.6571816       -85.09492
1.892                  0.6490848        -86.0043
1.896                  0.6408551       -86.92677
1.9                    0.6324946       -87.86266
1.904                  0.6240057       -88.81237
1.908                  0.6153904       -89.77632
1.912                  0.6066516       -90.75499
1.916                  0.5977918       -91.74885
1.92                   0.5888142       -92.75846
1.924                  0.5797219       -93.78439
1.928                  0.5705181        -94.8273
1.932                  0.5612067       -95.88783
1.936                  0.5517914       -96.96678
1.94                   0.5422762       -98.06493
1.944                  0.5326656       -99.18315
1.948                  0.5229642       -100.3224
1.952                  0.5131767       -101.4838
1.956                  0.5033084       -102.6684
1.96                   0.4933646       -103.8774
1.964                  0.4833512       -105.1122
1.968                  0.4732741       -106.3743
1.972                    0.46314       -107.6652
1.976                  0.4529556       -108.9867
1.98                   0.4427282       -110.3408
1.984                  0.4324655       -111.7294
1.988                  0.4221756       -113.1549
1.992                  0.4118674       -114.6198
1.996                    0.40155       -116.1267
2                      0.3912335       -117.6788
2.004                  0.3809284       -119.2791
2.008                  0.3706463       -120.9313
2.012                  0.3603992       -122.6393
2.016                  0.3502004       -124.4074
2.02                   0.3400642       -126.2402
2.024                  0.3300061       -128.1427
2.028                  0.3200426       -130.1204
2.032                  0.3101921       -132.1794
2.036                  0.3004742       -134.3259
2.04                   0.2909105       -136.5669
2.044                  0.2815245       -138.9097
2.048                  0.2723417        -141.362
2.052                  0.2633902       -143.9318
2.056                  0.2547003       -146.6272
2.06                    0.246305       -149.4565
2.064                    0.23824       -152.4276
2.068                  0.2305436       -155.5478
2.072                  0.2232568       -158.8233
2.076                  0.2164228       -162.2588
2.08                   0.2100866       -165.8567
2.084                  0.2042943       -169.6165
2.088                  0.1990918       -173.5341
2.092                  0.1945239       -177.6009
2.096                  0.1906323        178.1965
2.1                    0.1874541        173.8765
2.104                  0.1850197        169.4626
2.108                  0.1833513        164.9826
2.112                  0.1824611        160.4676
2.116                  0.1823506        155.9505
2.12                   0.1830105        151.4646
2.124                  0.1844206        147.0414
2.128                  0.1865512        142.7097
2.132                  0.1893645         138.494
2.136                  0.1928167        134.4138
2.14                   0.1968593        130.4837
2.144                  0.2014419        126.7133
2.148                   0.206513        123.1076
2.152                  0.2120219        119.6681
2.156                  0.2179195        116.3927
2.16                   0.2241593        113.2775
2.164                  0.2306973        110.3163
2.168                  0.2374931        107.5021
2.172                  0.2445092         104.827
2.176                  0.2517114         102.283
2.18                   0.2590686        99.86192
2.184                  0.2665525        97.55557
2.188                  0.2741375        95.35628
2.192                  0.2818006        93.25658
2.196                  0.2895209        91.24959
2.2                    0.2972797        89.32872
2.204                  0.3050598        87.48801
2.208                  0.3128461        85.72182
2.212                  0.3206247        84.02502
2.216                  0.3283833        82.39288
2.22                   0.3361105        80.82106
2.224                  0.3437963        79.30561
2.228                  0.3514316        77.84288
2.232                  0.3590082        76.42955
2.236                  0.3665185        75.06259
2.24                   0.3739561        73.73922
2.244                  0.3813149        72.45689
2.248                  0.3885897        71.21328
2.252                  0.3957755         70.0063
2.256                  0.4028682        68.83397
2.26                    0.409864         67.6945
2.264                  0.4167598        66.58629
2.268                  0.4235524        65.50781
2.272                  0.4302396        64.45768
2.276                   0.436819        63.43467
2.28                   0.4432892        62.43756
2.284                  0.4496484        61.46529
2.288                  0.4558957        60.51689
2.292                  0.4620302        59.59142
2.296                  0.4680513        58.68803
2.3                    0.4739587        57.80593
2.304                  0.4797523        56.94439
2.308                  0.4854323        56.10275
2.312                   0.490999        55.28033
2.316                  0.4964532        54.47658
2.32                   0.5017955        53.69092
2.324                  0.5070269        52.92284
2.328                  0.5121485        52.17186
2.332                  0.5171617         51.4375
2.336                  0.5220681        50.71934
2.34                    0.526869        50.01696
2.344                  0.5315665        49.32997
2.348                  0.5361622          48.658
2.352                  0.5406583        48.00068