! TOUCHSTONE file generated by CST MICROWAVE STUDIO
! Date and time: Sat May 14 10:20:39 2022
! Project name: AppElm_antenne_dipole_Alumina.cst
! Parameters = {L=33; e=0.035; f=2.45e+09; h=1.6; i=0.8; l1=1.5; lambda=122.449; ls=30; wl=1.7; ws=80}
! Header version: 2018
! Port assignment regex: !\s*Touchstone port\s*([0-9]+)\s*=\s*(CST MWS port|CST DS port)\s*([0-9]+|Zmin|Zmax)\s*\(\"(.*)\"\)(\s*mode\s*([0-9]+))?.*
! Touchstone port assignment:
! Touchstone port 1 = CST MWS port 1 ("")
# GHz S MA R 50
0                              1              -0
0.004                  0.9999991     -0.06429805
0.008                  0.9999967      -0.1285921
0.012                  0.9999927      -0.1928781
0.016                  0.9999871      -0.2571522
0.02                   0.9999799      -0.3214104
0.024                  0.9999712      -0.3856487
0.028                  0.9999609      -0.4498634
0.032                  0.9999491      -0.5140508
0.036                  0.9999359      -0.5782072
0.04                   0.9999211      -0.6423289
0.044                   0.999905      -0.7064124
0.048                  0.9998875      -0.7704544
0.052                  0.9998686      -0.8344517
0.056                  0.9998487      -0.8984012
0.06                   0.9998273         -0.9623
0.064                   0.999805       -1.026145
0.068                  0.9997813       -1.089934
0.072                  0.9997566       -1.153664
0.076                   0.999731       -1.217333
0.08                   0.9997045       -1.280939
0.084                  0.9996771        -1.34448
0.088                   0.999649       -1.407953
0.092                  0.9996202       -1.471359
0.096                  0.9995906       -1.534696
0.1                    0.9995605       -1.597961
0.104                    0.99953       -1.661155
0.108                  0.9994991       -1.724277
0.112                  0.9994679       -1.787327
0.116                  0.9994365       -1.850304
0.12                   0.9994048       -1.913208
0.124                  0.9993731        -1.97604
0.128                  0.9993414         -2.0388
0.132                  0.9993098       -2.101489
0.136                  0.9992783       -2.164109
0.14                   0.9992471        -2.22666
0.144                  0.9992161       -2.289144
0.148                  0.9991858       -2.351562
0.152                  0.9991558       -2.413918
0.156                  0.9991263       -2.476212
0.16                   0.9990977       -2.538447
0.164                  0.9990696       -2.600627
0.168                  0.9990424       -2.662753
0.172                  0.9990161        -2.72483
0.176                  0.9989907       -2.786859
0.18                   0.9989662       -2.848846
0.184                  0.9989429       -2.910794
0.188                  0.9989207       -2.972705
0.192                  0.9988997       -3.034586
0.196                  0.9988799       -3.096439
0.2                    0.9988614        -3.15827
0.204                  0.9988444       -3.220082
0.208                  0.9988286       -3.281881
0.212                  0.9988143       -3.343671
0.216                  0.9988015       -3.405458
0.22                   0.9987901       -3.467246
0.224                  0.9987803       -3.529041
0.228                  0.9987721       -3.590848
0.232                  0.9987655       -3.652671
0.236                  0.9987605       -3.714518
0.24                   0.9987571       -3.776394
0.244                  0.9987554       -3.838303
0.248                  0.9987552       -3.900251
0.252                  0.9987567       -3.962244
0.256                  0.9987598       -4.024288
0.26                   0.9987646       -4.086388
0.264                   0.998771       -4.148549
0.268                   0.998779       -4.210778
0.272                  0.9987885        -4.27308
0.276                  0.9987998       -4.335459
0.28                   0.9988125       -4.397922
0.284                  0.9988267       -4.460474
0.288                  0.9988423        -4.52312
0.292                  0.9988593       -4.585865
0.296                  0.9988778       -4.648713
0.3                    0.9988976       -4.711672
0.304                  0.9989186       -4.774744
0.308                  0.9989409       -4.837935
0.312                  0.9989645       -4.901247
0.316                   0.998989       -4.964687
0.32                   0.9990147       -5.028258
0.324                  0.9990412       -5.091964
0.328                  0.9990687       -5.155809
0.332                  0.9990971       -5.219796
0.336                  0.9991263       -5.283928
0.34                   0.9991561       -5.348209
0.344                  0.9991864       -5.412642
0.348                  0.9992173       -5.477229
0.352                  0.9992488       -5.541972
0.356                  0.9992804       -5.606875
0.36                   0.9993125       -5.671938
0.364                  0.9993447       -5.737164
0.368                   0.999377       -5.802553
0.372                  0.9994091       -5.868109
0.376                  0.9994414       -5.933829
0.38                   0.9994734       -5.999717
0.384                  0.9995053       -6.065772
0.388                  0.9995368       -6.131994
0.392                  0.9995677       -6.198385
0.396                  0.9995982       -6.264942
0.4                    0.9996281       -6.331667
0.404                  0.9996574       -6.398557
0.408                  0.9996858       -6.465612
0.412                  0.9997134        -6.53283
0.416                  0.9997402       -6.600212
0.42                   0.9997657       -6.667753
0.424                  0.9997903       -6.735455
0.428                  0.9998137       -6.803311
0.432                  0.9998361       -6.871323
0.436                  0.9998568       -6.939486
0.44                   0.9998764       -7.007798
0.444                  0.9998945       -7.076257
0.448                  0.9999112       -7.144858
0.452                  0.9999263         -7.2136
0.456                  0.9999398       -7.282478
0.46                   0.9999517       -7.351489
0.464                  0.9999619       -7.420629
0.468                  0.9999705       -7.489896
0.472                  0.9999772       -7.559284
0.476                  0.9999822        -7.62879
0.48                   0.9999854       -7.698409
0.484                  0.9999868       -7.768139
0.488                  0.9999863       -7.837973
0.492                  0.9999839       -7.907909
0.496                  0.9999795       -7.977943
0.5                    0.9999735       -8.048069
0.504                  0.9999654       -8.118283
0.508                  0.9999557       -8.188581
0.512                  0.9999439       -8.258959
0.516                  0.9999303       -8.329414
0.52                   0.9999149       -8.399941
0.524                  0.9998976       -8.470533
0.528                  0.9998786        -8.54119
0.532                  0.9998578       -8.611907
0.536                  0.9998355       -8.682677
0.54                   0.9998113       -8.753502
0.544                  0.9997855       -8.824372
0.548                   0.999758       -8.895289
0.552                  0.9997292       -8.966246
0.556                  0.9996989       -9.037241
0.56                   0.9996672       -9.108273
0.564                  0.9996341       -9.179336
0.568                  0.9995997       -9.250429
0.572                  0.9995642       -9.321549
0.576                  0.9995275       -9.392694
0.58                   0.9994898       -9.463861
0.584                  0.9994511       -9.535049
0.588                  0.9994114       -9.606259
0.592                   0.999371       -9.677487
0.596                  0.9993297       -9.748733
0.6                     0.999288       -9.819994
0.604                  0.9992457       -9.891271
0.608                   0.999203       -9.962563
0.612                  0.9991598       -10.03387
0.616                  0.9991165        -10.1052
0.62                   0.9990729       -10.17654
0.624                  0.9990293        -10.2479
0.628                  0.9989857       -10.31928
0.632                  0.9989422       -10.39068
0.636                  0.9988989        -10.4621
0.64                   0.9988559       -10.53355
0.644                  0.9988135       -10.60502
0.648                  0.9987715       -10.67653
0.652                  0.9987301       -10.74806
0.656                  0.9986892       -10.81963
0.66                   0.9986493       -10.89124
0.664                  0.9986102       -10.96289
0.668                   0.998572       -11.03459
0.672                  0.9985348       -11.10634
0.676                  0.9984988       -11.17815
0.68                    0.998464       -11.25002
0.684                  0.9984304       -11.32195
0.688                  0.9983982       -11.39396
0.692                  0.9983673       -11.46604
0.696                   0.998338        -11.5382
0.7                    0.9983102       -11.61045
0.704                  0.9982839        -11.6828
0.708                  0.9982592       -11.75524
0.712                  0.9982363        -11.8278
0.716                  0.9982151       -11.90047
0.72                   0.9981956       -11.97326
0.724                  0.9981779       -12.04618
0.728                   0.998162       -12.11923
0.732                  0.9981482       -12.19243
0.736                   0.998136       -12.26577
0.74                   0.9981257       -12.33928
0.744                  0.9981174       -12.41295
0.748                   0.998111       -12.48679
0.752                  0.9981063       -12.56081
0.756                  0.9981036       -12.63502
0.76                   0.9981029       -12.70942
0.764                  0.9981038       -12.78403
0.768                  0.9981067       -12.85884
0.772                  0.9981112       -12.93388
0.776                  0.9981177       -13.00914
0.78                   0.9981257       -13.08463
0.784                  0.9981355       -13.16037
0.788                  0.9981469       -13.23635
0.792                  0.9981599       -13.31258
0.796                  0.9981743       -13.38908
0.8                    0.9981903       -13.46584
0.804                  0.9982074       -13.54288
0.808                  0.9982261        -13.6202
0.812                  0.9982458       -13.69781
0.816                  0.9982667       -13.77572
0.82                   0.9982887       -13.85392
0.824                  0.9983115       -13.93243
0.828                  0.9983353       -14.01125
0.832                  0.9983597       -14.09039
0.836                  0.9983849       -14.16985
0.84                   0.9984105       -14.24963
0.844                  0.9984367       -14.32974
0.848                  0.9984631       -14.41019
0.852                  0.9984898       -14.49098
0.856                  0.9985166       -14.57211
0.86                   0.9985433       -14.65359
0.864                  0.9985699       -14.73541
0.868                  0.9985962       -14.81759
0.872                  0.9986221       -14.90011
0.876                  0.9986475         -14.983
0.88                   0.9986723       -15.06624
0.884                  0.9986964       -15.14984
0.888                  0.9987196        -15.2338
0.892                  0.9987418       -15.31812
0.896                  0.9987628        -15.4028
0.9                    0.9987827       -15.48784
0.904                  0.9988012       -15.57325
0.908                  0.9988183       -15.65901
0.912                  0.9988338       -15.74514
0.916                  0.9988475       -15.83162
0.92                   0.9988594       -15.91846
0.924                  0.9988694       -16.00566
0.928                  0.9988773        -16.0932
0.932                  0.9988832       -16.18111
0.936                  0.9988869       -16.26935
0.94                   0.9988883       -16.35795
0.944                  0.9988871       -16.44689
0.948                  0.9988836       -16.53617
0.952                  0.9988774       -16.62578
0.956                  0.9988686       -16.71573
0.96                   0.9988571       -16.80601
0.964                  0.9988428       -16.89662
0.968                  0.9988256       -16.98754
0.972                  0.9988055       -17.07878
0.976                  0.9987824       -17.17033
0.98                   0.9987564       -17.26219
0.984                  0.9987273       -17.35436
0.988                  0.9986951       -17.44682
0.992                  0.9986597       -17.53958
0.996                  0.9986214       -17.63262
1                      0.9985798       -17.72595
1.004                  0.9985351       -17.81956
1.008                  0.9984871       -17.91345
1.012                  0.9984361        -18.0076
1.016                   0.998382       -18.10201
1.02                   0.9983247       -18.19668
1.024                  0.9982642       -18.29162
1.028                  0.9982008        -18.3868
1.032                  0.9981343       -18.48224
1.036                  0.9980648       -18.57791
1.04                   0.9979923       -18.67381
1.044                   0.997917       -18.76995
1.048                  0.9978388       -18.86631
1.052                  0.9977579       -18.96292
1.056                   0.997674       -19.05971
1.06                   0.9975878       -19.15676
1.064                   0.997499       -19.25402
1.068                  0.9974077        -19.3515
1.072                  0.9973141        -19.4492
1.076                  0.9972182       -19.54706
1.08                   0.9971201       -19.64517
1.084                  0.9970201       -19.74347
1.088                   0.996918       -19.84202
1.092                  0.9968141        -19.9407
1.096                  0.9967084       -20.03966
1.1                    0.9966012       -20.13878
1.104                  0.9964926       -20.23811
1.108                  0.9963825       -20.33764
1.112                  0.9962712       -20.43742
1.116                  0.9961589       -20.53736
1.12                   0.9960455       -20.63754
1.124                  0.9959313       -20.73795
1.128                  0.9958164       -20.83855
1.132                   0.995701       -20.93938
1.136                   0.995585       -21.04044
1.14                   0.9954688       -21.14173
1.144                  0.9953525       -21.24325
1.148                   0.995236       -21.34502
1.152                  0.9951197       -21.44703
1.156                  0.9950035        -21.5493
1.16                   0.9948878       -21.65183
1.164                  0.9947724       -21.75463
1.168                  0.9946576       -21.85771
1.172                  0.9945435       -21.96106
1.176                  0.9944302       -22.06472
1.18                   0.9943178       -22.16867
1.184                  0.9942064       -22.27294
1.188                  0.9940963       -22.37752
1.192                  0.9939872       -22.48245
1.196                  0.9938796       -22.58771
1.2                    0.9937731       -22.69333
1.204                  0.9936682       -22.79931
1.208                  0.9935649       -22.90567
1.212                  0.9934631       -23.01242
1.216                  0.9933629       -23.11957
1.22                   0.9932645       -23.22714
1.224                  0.9931677       -23.33514
1.228                  0.9930729       -23.44358
1.232                  0.9929797       -23.55247
1.236                  0.9928884       -23.66184
1.24                   0.9927989       -23.77169
1.244                  0.9927113       -23.88203
1.248                  0.9926254       -23.99289
1.252                  0.9925414       -24.10428
1.256                  0.9924592       -24.21621
1.26                   0.9923788       -24.32869
1.264                  0.9922999       -24.44175
1.268                  0.9922229       -24.55539
1.272                  0.9921473       -24.66964
1.276                  0.9920734        -24.7845
1.28                   0.9920009       -24.89999
1.284                  0.9919298       -25.01613
1.288                    0.99186       -25.13293
1.292                  0.9917913        -25.2504
1.296                  0.9917236       -25.36857
1.3                    0.9916569       -25.48745
1.304                  0.9915911       -25.60704
1.308                  0.9915257       -25.72737
1.312                   0.991461       -25.84845
1.316                  0.9913965        -25.9703
1.32                   0.9913324       -26.09291
1.324                  0.9912683       -26.21631
1.328                   0.991204       -26.34052
1.332                  0.9911394       -26.46554
1.336                  0.9910743       -26.59139
1.34                   0.9910083       -26.71808
1.344                  0.9909415       -26.84562
1.348                  0.9908736       -26.97402
1.352                  0.9908042       -27.10329
1.356                  0.9907334       -27.23345
1.36                   0.9906607       -27.36451
1.364                   0.990586       -27.49646
1.368                   0.990509       -27.62933
1.372                  0.9904296       -27.76312
1.376                  0.9903473       -27.89784
1.38                   0.9902621        -28.0335
1.384                  0.9901738       -28.17011
1.388                  0.9900819       -28.30766
1.392                  0.9899863       -28.44618
1.396                  0.9898868       -28.58566
1.4                     0.989783       -28.72612
1.404                  0.9896748       -28.86755
1.408                  0.9895618       -29.00995
1.412                  0.9894439       -29.15335
1.416                  0.9893208       -29.29774
1.42                   0.9891923       -29.44311
1.424                  0.9890581       -29.58948
1.428                  0.9889179       -29.73685
1.432                  0.9887717       -29.88522
1.436                  0.9886189       -30.03459
1.44                   0.9884597       -30.18495
1.444                  0.9882936       -30.33633
1.448                  0.9881204       -30.48871
1.452                  0.9879399       -30.64208
1.456                   0.987752       -30.79647
1.46                   0.9875564       -30.95185
1.464                   0.987353       -31.10825
1.468                  0.9871416       -31.26563
1.472                  0.9869219       -31.42402
1.476                  0.9866938        -31.5834
1.48                   0.9864572       -31.74379
1.484                  0.9862119       -31.90516
1.488                  0.9859576       -32.06753
1.492                  0.9856945       -32.23089
1.496                  0.9854222       -32.39523
1.5                    0.9851406       -32.56056
1.504                  0.9848498       -32.72687
1.508                  0.9845493       -32.89417
1.512                  0.9842395       -33.06244
1.516                  0.9839201       -33.23168
1.52                   0.9835908        -33.4019
1.524                  0.9832518       -33.57309
1.528                  0.9829031       -33.74524
1.532                  0.9825444       -33.91838
1.536                  0.9821758       -34.09247
1.54                   0.9817975       -34.26753
1.544                  0.9814092       -34.44354
1.548                   0.981011       -34.62053
1.552                  0.9806028       -34.79848
1.556                  0.9801848       -34.97738
1.56                   0.9797567       -35.15727
1.564                   0.979319        -35.3381
1.568                  0.9788713        -35.5199
1.572                  0.9784139       -35.70267
1.576                  0.9779468       -35.88642
1.58                   0.9774701       -36.07114
1.584                  0.9769838       -36.25684
1.588                   0.976488       -36.44352
1.592                  0.9759828       -36.63118
1.596                  0.9754682       -36.81985
1.6                    0.9749445       -37.00952
1.604                  0.9744116       -37.20019
1.608                  0.9738698       -37.39188
1.612                  0.9733189        -37.5846
1.616                  0.9727592       -37.77836
1.62                   0.9721908       -37.97317
1.624                   0.971614       -38.16903
1.628                  0.9710286       -38.36597
1.632                  0.9704348       -38.56401
1.636                  0.9698329       -38.76313
1.64                   0.9692228       -38.96338
1.644                  0.9686047       -39.16477
1.648                  0.9679787       -39.36731
1.652                   0.967345       -39.57102
1.656                  0.9667036       -39.77593
1.66                   0.9660545       -39.98205
1.664                  0.9653982        -40.1894
1.668                  0.9647342       -40.39802
1.672                   0.964063       -40.60793
1.676                  0.9633847       -40.81914
1.68                   0.9626991       -41.03169
1.684                  0.9620064       -41.24561
1.688                  0.9613065       -41.46092
1.692                  0.9605997       -41.67766
1.696                  0.9598859       -41.89586
1.7                    0.9591651       -42.11555
1.704                  0.9584374       -42.33674
1.708                  0.9577025       -42.55951
1.712                  0.9569607       -42.78386
1.716                  0.9562118       -43.00985
1.72                   0.9554558       -43.23749
1.724                  0.9546924       -43.46685
1.728                  0.9539219       -43.69795
1.732                  0.9531439       -43.93083
1.736                  0.9523584       -44.16555
1.74                   0.9515652       -44.40212
1.744                   0.950764       -44.64061
1.748                  0.9499548       -44.88105
1.752                  0.9491374       -45.12349
1.756                  0.9483113       -45.36798
1.76                   0.9474766       -45.61456
1.764                  0.9466328       -45.86328
1.768                  0.9457796       -46.11419
1.772                  0.9449169       -46.36732
1.776                  0.9440441       -46.62275
1.78                   0.9431609        -46.8805
1.784                   0.942267       -47.14064
1.788                  0.9413618       -47.40321
1.792                   0.940445       -47.66825
1.796                  0.9395161       -47.93583
1.8                    0.9385746       -48.20599
1.804                    0.93762        -48.4788
1.808                  0.9366519       -48.75428
1.812                  0.9356694       -49.03251
1.816                  0.9346721       -49.31353
1.82                   0.9336595        -49.5974
1.824                  0.9326308       -49.88415
1.828                  0.9315854       -50.17385
1.832                  0.9305226       -50.46655
1.836                  0.9294417        -50.7623
1.84                    0.928342       -51.06116
1.844                  0.9272227       -51.36317
1.848                   0.926083       -51.66839
1.852                  0.9249223       -51.97686
1.856                  0.9237395       -52.28864
1.86                    0.922534       -52.60378
1.864                  0.9213047       -52.92233
1.868                  0.9200509       -53.24433
1.872                  0.9187718       -53.56985
1.876                  0.9174663       -53.89892
1.88                   0.9161335        -54.2316
1.884                  0.9147727       -54.56792
1.888                  0.9133826       -54.90796
1.892                  0.9119623       -55.25173
1.896                  0.9105108       -55.59931
1.9                    0.9090273       -55.95072
1.904                  0.9075108       -56.30601
1.908                  0.9059598       -56.66525
1.912                  0.9043739       -57.02845
1.916                  0.9027516       -57.39567
1.92                   0.9010922       -57.76696
1.924                  0.8993944       -58.14233
1.928                  0.8976573       -58.52186
1.932                  0.8958795       -58.90558
1.936                  0.8940605       -59.29351
1.94                   0.8921986       -59.68572
1.944                  0.8902933       -60.08223
1.948                  0.8883432       -60.48308
1.952                  0.8863473       -60.88832
1.956                  0.8843046       -61.29796
1.96                   0.8822139       -61.71208
1.964                  0.8800744       -62.13067
1.968                  0.8778848        -62.5538
1.972                  0.8756442       -62.98148
1.976                  0.8733514       -63.41378
1.98                   0.8710055        -63.8507
1.984                  0.8686055       -64.29229
1.988                  0.8661505       -64.73859
1.992                  0.8636392       -65.18962
1.996                  0.8610709       -65.64541
2                      0.8584446       -66.10599
2.004                  0.8557593       -66.57144
2.008                  0.8530141       -67.04174
2.012                   0.850208       -67.51695
2.016                  0.8473405       -67.99708
2.02                   0.8444103       -68.48219
2.024                  0.8414168        -68.9723
2.028                   0.838359       -69.46744
2.032                  0.8352362       -69.96766
2.036                  0.8320479       -70.47297
2.04                   0.8287929       -70.98343
2.044                  0.8254709       -71.49906
2.048                  0.8220809       -72.01989
2.052                  0.8186225       -72.54596
2.056                   0.815095       -73.07732
2.06                   0.8114977         -73.614
2.064                  0.8078303       -74.15603
2.068                  0.8040921       -74.70348
2.072                  0.8002826       -75.25636
2.076                  0.7964014       -75.81471
2.08                   0.7924482        -76.3786
2.084                  0.7884224       -76.94806
2.088                   0.784324       -77.52314
2.092                  0.7801522       -78.10388
2.096                  0.7759073       -78.69035
2.1                    0.7715887       -79.28258
2.104                  0.7671964       -79.88063
2.108                  0.7627304       -80.48455
2.112                  0.7581903       -81.09444
2.116                  0.7535763       -81.71033
2.12                   0.7488882       -82.33227
2.124                  0.7441263       -82.96036
2.128                  0.7392905       -83.59464
2.132                  0.7343812        -84.2352
2.136                  0.7293983       -84.88213
2.14                   0.7243423       -85.53551
2.144                  0.7192132        -86.1954
2.148                  0.7140115        -86.8619
2.152                  0.7087377       -87.53511
2.156                  0.7033922       -88.21514
2.16                   0.6979753       -88.90208
2.164                  0.6924878       -89.59604
2.168                  0.6869302       -90.29713
2.172                  0.6813031       -91.00548
2.176                  0.6756073       -91.72123
2.18                   0.6698436       -92.44448
2.184                  0.6640128        -93.1754
2.188                  0.6581157       -93.91413
2.192                  0.6521533        -94.6608
2.196                  0.6461267       -95.41562
2.2                    0.6400369       -96.17872
2.204                  0.6338849       -96.95031
2.208                  0.6276721       -97.73059
2.212                  0.6213997       -98.51974
2.216                   0.615069       -99.31798
2.22                   0.6086813       -100.1255
2.224                  0.6022382       -100.9426
2.228                  0.5957411       -101.7695
2.232                  0.5891918       -102.6065
2.236                  0.5825916       -103.4538
2.24                   0.5759426       -104.3118
2.244                  0.5692464       -105.1806
2.248                   0.562505       -106.0608
2.252                  0.5557204       -106.9525
2.256                  0.5488947       -107.8563
2.26                   0.5420299       -108.7724
2.264                  0.5351282       -109.7012
2.268                  0.5281921       -110.6432
2.272                  0.5212239       -111.5989
2.276                  0.5142261       -112.5687
2.28                   0.5072013        -113.553
2.284                  0.5001524       -114.5525
2.288                   0.493082       -115.5677
2.292                  0.4859932       -116.5992
2.296                   0.478889       -117.6475
2.3                    0.4717726       -118.7134
2.304                  0.4646473       -119.7975
2.308                  0.4575165       -120.9005
2.312                  0.4503839       -122.0233
2.316                  0.4432531       -123.1666
2.32                   0.4361282       -124.3312
2.324                  0.4290131       -125.5181
2.328                  0.4219121       -126.7282
2.332                  0.4148295       -127.9623
2.336                  0.4077702       -129.2217
2.34                   0.4007387       -130.5074
2.344                  0.3937402       -131.8204
2.348                    0.38678        -133.162
2.352                  0.3798633       -134.5333