! TOUCHSTONE file generated by CST MICROWAVE STUDIO
! Date and time: Sat May 14 10:20:44 2022
! Project name: AppElm_antenne_dipole_Alumina.cst
! Parameters = {L=33; e=0.035; f=2.45e+09; h=1.6; i=0.8; l1=2.1; lambda=122.449; ls=30; wl=1.7; ws=80}
! Header version: 2018
! Port assignment regex: !\s*Touchstone port\s*([0-9]+)\s*=\s*(CST MWS port|CST DS port)\s*([0-9]+|Zmin|Zmax)\s*\(\"(.*)\"\)(\s*mode\s*([0-9]+))?.*
! Touchstone port assignment:
! Touchstone port 1 = CST MWS port 1 ("")
# GHz S MA R 50
0                              1              -0
0.004                  0.9999985     -0.07041376
0.008                  0.9999944      -0.1408203
0.012                  0.9999875      -0.2112124
0.016                   0.999978      -0.2815828
0.02                    0.999966      -0.3519245
0.024                   0.999951      -0.4222305
0.028                  0.9999336      -0.4924937
0.032                  0.9999136      -0.5627074
0.036                   0.999891       -0.632865
0.04                   0.9998662      -0.7029598
0.044                  0.9998387      -0.7729858
0.048                  0.9998091      -0.8429363
0.052                  0.9997771      -0.9128062
0.056                  0.9997431       -0.982589
0.06                    0.999707        -1.05228
0.064                  0.9996688       -1.121873
0.068                  0.9996287       -1.191364
0.072                   0.999587       -1.260748
0.076                  0.9995437       -1.330021
0.08                   0.9994987        -1.39918
0.084                  0.9994522       -1.468219
0.088                  0.9994046       -1.537136
0.092                  0.9993556       -1.605929
0.096                  0.9993057       -1.674594
0.1                    0.9992549       -1.743129
0.104                  0.9992032       -1.811533
0.108                  0.9991509       -1.879804
0.112                  0.9990979       -1.947941
0.116                  0.9990447       -2.015943
0.12                   0.9989913       -2.083811
0.124                  0.9989378       -2.151545
0.128                  0.9988842       -2.219144
0.132                  0.9988309       -2.286611
0.136                  0.9987778       -2.353947
0.14                   0.9987253       -2.421153
0.144                  0.9986733       -2.488232
0.148                   0.998622       -2.555186
0.152                  0.9985717       -2.622019
0.156                  0.9985221       -2.688734
0.16                    0.998474       -2.755335
0.164                  0.9984269       -2.821826
0.168                  0.9983814       -2.888212
0.172                  0.9983372       -2.954498
0.176                  0.9982947       -3.020688
0.18                    0.998254        -3.08679
0.184                   0.998215       -3.152808
0.188                   0.998178        -3.21875
0.192                  0.9981431       -3.284621
0.196                  0.9981102        -3.35043
0.2                    0.9980796       -3.416182
0.204                  0.9980513       -3.481885
0.208                  0.9980254       -3.547548
0.212                  0.9980021       -3.613177
0.216                  0.9979811       -3.678782
0.22                   0.9979627        -3.74437
0.224                  0.9979469       -3.809951
0.228                  0.9979338       -3.875532
0.232                  0.9979234       -3.941121
0.236                  0.9979157        -4.00673
0.24                   0.9979109       -4.072364
0.244                  0.9979087       -4.138035
0.248                  0.9979093       -4.203751
0.252                  0.9979126       -4.269522
0.256                  0.9979189       -4.335356
0.26                   0.9979278       -4.401262
0.264                  0.9979393        -4.46725
0.268                  0.9979536       -4.533326
0.272                  0.9979707       -4.599502
0.276                  0.9979902       -4.665787
0.28                   0.9980125       -4.732187
0.284                  0.9980371       -4.798712
0.288                  0.9980642       -4.865371
0.292                  0.9980937        -4.93217
0.296                  0.9981256       -4.999118
0.3                    0.9981596       -5.066223
0.304                  0.9981957       -5.133493
0.308                  0.9982339       -5.200933
0.312                   0.998274       -5.268552
0.316                   0.998316       -5.336355
0.32                   0.9983596       -5.404349
0.324                  0.9984048        -5.47254
0.328                  0.9984515       -5.540934
0.332                  0.9984997       -5.609534
0.336                  0.9985489       -5.678349
0.34                   0.9985994        -5.74738
0.344                  0.9986508       -5.816632
0.348                  0.9987029       -5.886109
0.352                  0.9987558       -5.955815
0.356                  0.9988092       -6.025752
0.36                    0.998863       -6.095924
0.364                  0.9989171        -6.16633
0.368                  0.9989713       -6.236975
0.372                  0.9990253       -6.307858
0.376                  0.9990793       -6.378981
0.38                    0.999133       -6.450345
0.384                  0.9991861       -6.521949
0.388                  0.9992386       -6.593792
0.392                  0.9992902       -6.665875
0.396                  0.9993412       -6.738194
0.4                     0.999391       -6.810751
0.404                  0.9994394       -6.883541
0.408                  0.9994867       -6.956563
0.412                  0.9995325       -7.029813
0.416                  0.9995768       -7.103288
0.42                   0.9996192       -7.176987
0.424                  0.9996597       -7.250902
0.428                  0.9996984       -7.325032
0.432                  0.9997351       -7.399371
0.436                  0.9997696       -7.473912
0.44                   0.9998016       -7.548655
0.444                  0.9998315       -7.623589
0.448                  0.9998589       -7.698711
0.452                  0.9998836       -7.774016
0.456                  0.9999058       -7.849496
0.46                   0.9999252       -7.925144
0.464                  0.9999418       -8.000954
0.468                  0.9999558        -8.07692
0.472                  0.9999668       -8.153033
0.476                  0.9999748       -8.229288
0.48                     0.99998       -8.305677
0.484                  0.9999821       -8.382193
0.488                  0.9999812       -8.458825
0.492                  0.9999774       -8.535573
0.496                  0.9999706       -8.612422
0.5                    0.9999606       -8.689367
0.504                  0.9999476       -8.766403
0.508                  0.9999317       -8.843518
0.512                  0.9999128       -8.920709
0.516                   0.999891       -8.997965
0.52                   0.9998662       -9.075281
0.524                  0.9998385       -9.152651
0.528                  0.9998082       -9.230063
0.532                   0.999775       -9.307514
0.536                  0.9997391       -9.384998
0.54                   0.9997008       -9.462507
0.544                  0.9996599       -9.540035
0.548                  0.9996165       -9.617576
0.552                  0.9995708       -9.695124
0.556                  0.9995227       -9.772676
0.56                   0.9994728       -9.850221
0.564                  0.9994208       -9.927762
0.568                  0.9993666       -10.00529
0.572                  0.9993109        -10.0828
0.576                  0.9992535       -10.16029
0.58                   0.9991947       -10.23776
0.584                  0.9991343        -10.3152
0.588                  0.9990728       -10.39262
0.592                  0.9990102          -10.47
0.596                  0.9989466       -10.54735
0.6                    0.9988822       -10.62466
0.604                  0.9988171       -10.70195
0.608                  0.9987517       -10.77919
0.612                  0.9986858        -10.8564
0.616                  0.9986197       -10.93358
0.62                   0.9985537       -11.01073
0.624                  0.9984877       -11.08784
0.628                  0.9984219       -11.16492
0.632                  0.9983567       -11.24198
0.636                   0.998292       -11.31901
0.64                    0.998228       -11.39602
0.644                  0.9981651       -11.47302
0.648                  0.9981031          -11.55
0.652                  0.9980423       -11.62697
0.656                  0.9979828       -11.70394
0.66                   0.9979247       -11.78092
0.664                  0.9978684        -11.8579
0.668                  0.9978138        -11.9349
0.672                  0.9977609       -12.01193
0.676                  0.9977101       -12.08898
0.68                   0.9976614       -12.16607
0.684                   0.997615       -12.24321
0.688                  0.9975708        -12.3204
0.692                   0.997529       -12.39766
0.696                  0.9974898       -12.47499
0.7                    0.9974532        -12.5524
0.704                  0.9974194        -12.6299
0.708                  0.9973882       -12.70751
0.712                  0.9973597       -12.78523
0.716                  0.9973344       -12.86306
0.72                   0.9973118       -12.94104
0.724                  0.9972923       -13.01915
0.728                  0.9972758       -13.09742
0.732                  0.9972622       -13.17586
0.736                  0.9972517       -13.25447
0.74                   0.9972442       -13.33327
0.744                  0.9972399       -13.41227
0.748                  0.9972385       -13.49149
0.752                  0.9972402       -13.57092
0.756                  0.9972448       -13.65059
0.76                   0.9972525        -13.7305
0.764                   0.997263       -13.81068
0.768                  0.9972765       -13.89111
0.772                  0.9972926       -13.97183
0.776                  0.9973116       -14.05283
0.78                   0.9973332       -14.13414
0.784                  0.9973574       -14.21575
0.788                   0.997384       -14.29769
0.792                  0.9974131       -14.37995
0.796                  0.9974444       -14.46256
0.8                    0.9974778       -14.54552
0.804                  0.9975132       -14.62883
0.808                  0.9975507       -14.71251
0.812                  0.9975897       -14.79657
0.816                  0.9976305       -14.88102
0.82                   0.9976727       -14.96585
0.824                  0.9977163       -15.05109
0.828                  0.9977611       -15.13673
0.832                  0.9978069       -15.22278
0.836                  0.9978535       -15.30926
0.84                   0.9979008       -15.39615
0.844                  0.9979485       -15.48348
0.848                  0.9979966       -15.57125
0.852                  0.9980449       -15.65945
0.856                  0.9980931        -15.7481
0.86                   0.9981409       -15.83719
0.864                  0.9981886       -15.92673
0.868                  0.9982354       -16.01672
0.872                  0.9982817       -16.10716
0.876                  0.9983269       -16.19806
0.88                   0.9983709       -16.28941
0.884                  0.9984137       -16.38121
0.888                   0.998455       -16.47348
0.892                  0.9984945       -16.56619
0.896                  0.9985322       -16.65936
0.9                    0.9985679       -16.75298
0.904                  0.9986012       -16.84704
0.908                  0.9986323       -16.94156
0.912                  0.9986608       -17.03651
0.916                  0.9986867       -17.13191
0.92                   0.9987095       -17.22774
0.924                  0.9987295         -17.324
0.928                  0.9987463       -17.42068
0.932                  0.9987597        -17.5178
0.936                  0.9987697       -17.61532
0.94                   0.9987763       -17.71326
0.944                  0.9987792       -17.81159
0.948                  0.9987783       -17.91033
0.952                  0.9987734       -18.00945
0.956                  0.9987648       -18.10896
0.96                   0.9987519       -18.20885
0.964                  0.9987351        -18.3091
0.968                   0.998714       -18.40972
0.972                  0.9986887       -18.51069
0.976                  0.9986591         -18.612
0.98                   0.9986251       -18.71366
0.984                  0.9985868       -18.81564
0.988                  0.9985441       -18.91794
0.992                   0.998497       -19.02056
0.996                  0.9984454       -19.12348
1                      0.9983896        -19.2267
1.004                  0.9983293       -19.33021
1.008                  0.9982648       -19.43398
1.012                  0.9981959       -19.53805
1.016                  0.9981227       -19.64238
1.02                   0.9980453       -19.74697
1.024                  0.9979637        -19.8518
1.028                  0.9978782       -19.95687
1.032                  0.9977886        -20.0622
1.036                  0.9976952       -20.16776
1.04                   0.9975979       -20.27349
1.044                  0.9974969        -20.3795
1.048                  0.9973924       -20.48569
1.052                  0.9972845       -20.59211
1.056                  0.9971733       -20.69874
1.06                   0.9970588       -20.80551
1.064                  0.9969413       -20.91253
1.068                  0.9968211        -21.0197
1.072                  0.9966981        -21.1271
1.076                  0.9965726       -21.23469
1.08                   0.9964446       -21.34245
1.084                  0.9963145       -21.45039
1.088                  0.9961824        -21.5585
1.092                  0.9960484       -21.66682
1.096                  0.9959128       -21.77529
1.1                    0.9957757       -21.88397
1.104                  0.9956374       -21.99284
1.108                  0.9954979       -22.10188
1.112                  0.9953577       -22.21114
1.116                  0.9952167       -22.32055
1.12                   0.9950752       -22.43017
1.124                  0.9949336       -22.54005
1.128                  0.9947915       -22.65009
1.132                  0.9946498       -22.76036
1.136                  0.9945085       -22.87086
1.14                   0.9943675       -22.98159
1.144                  0.9942272       -23.09257
1.148                  0.9940877       -23.20379
1.152                  0.9939494       -23.31528
1.156                  0.9938121       -23.42703
1.16                   0.9936763       -23.53907
1.164                   0.993542        -23.6514
1.168                  0.9934094       -23.76404
1.172                  0.9932785         -23.877
1.176                  0.9931498       -23.99029
1.18                   0.9930231       -24.10393
1.184                  0.9928986       -24.21793
1.188                  0.9927765        -24.3323
1.192                  0.9926568       -24.44707
1.196                  0.9925399       -24.56224
1.2                    0.9924254       -24.67785
1.204                  0.9923138       -24.79389
1.208                  0.9922049       -24.91039
1.212                  0.9920989       -25.02737
1.216                  0.9919956       -25.14484
1.22                   0.9918955       -25.26282
1.224                  0.9917983       -25.38134
1.228                   0.991704       -25.50041
1.232                  0.9916127       -25.62005
1.236                  0.9915244       -25.74028
1.24                   0.9914389       -25.86111
1.244                  0.9913564       -25.98258
1.248                  0.9912767       -26.10469
1.252                  0.9911997       -26.22747
1.256                  0.9911255       -26.35093
1.26                   0.9910538        -26.4751
1.264                  0.9909848           -26.6
1.268                   0.990918       -26.72565
1.272                  0.9908536       -26.85205
1.276                  0.9907912       -26.97925
1.28                   0.9907307       -27.10724
1.284                  0.9906721       -27.23606
1.288                   0.990615       -27.36572
1.292                  0.9905595       -27.49624
1.296                  0.9905052       -27.62763
1.3                    0.9904519       -27.75992
1.304                  0.9903994       -27.89312
1.308                  0.9903477       -28.02724
1.312                  0.9902961       -28.16231
1.316                  0.9902445       -28.29834
1.32                    0.990193       -28.43535
1.324                  0.9901409       -28.57334
1.328                  0.9900881       -28.71234
1.332                  0.9900344       -28.85236
1.336                  0.9899795        -28.9934
1.34                    0.989923       -29.13549
1.344                  0.9898646       -29.27864
1.348                   0.989804       -29.42285
1.352                  0.9897409       -29.56814
1.356                  0.9896752       -29.71452
1.36                   0.9896062       -29.86199
1.364                  0.9895339       -30.01057
1.368                   0.989458       -30.16026
1.372                  0.9893778       -30.31108
1.376                  0.9892934       -30.46302
1.38                   0.9892041        -30.6161
1.384                  0.9891099       -30.77031
1.388                  0.9890104       -30.92567
1.392                  0.9889052       -31.08217
1.396                  0.9887941       -31.23983
1.4                    0.9886767       -31.39864
1.404                  0.9885527       -31.55861
1.408                  0.9884219       -31.71973
1.412                  0.9882838       -31.88202
1.416                  0.9881382       -32.04546
1.42                   0.9879849       -32.21007
1.424                  0.9878236       -32.37583
1.428                   0.987654       -32.54276
1.432                  0.9874757       -32.71083
1.436                  0.9872886       -32.88007
1.44                   0.9870925       -33.05045
1.444                  0.9868871       -33.22198
1.448                  0.9866721       -33.39466
1.452                  0.9864474       -33.56849
1.456                  0.9862128       -33.74344
1.46                   0.9859679       -33.91954
1.464                  0.9857127       -34.09676
1.468                  0.9854472       -34.27511
1.472                  0.9851708       -34.45458
1.476                  0.9848837       -34.63518
1.48                   0.9845858       -34.81687
1.484                  0.9842767       -34.99969
1.488                  0.9839565        -35.1836
1.492                  0.9836251        -35.3686
1.496                  0.9832823        -35.5547
1.5                    0.9829281       -35.74189
1.504                  0.9825626       -35.93017
1.508                  0.9821855       -36.11952
1.512                  0.9817969       -36.30995
1.516                  0.9813968       -36.50145
1.52                   0.9809852       -36.69402
1.524                   0.980562       -36.88767
1.528                  0.9801273       -37.08237
1.532                  0.9796814       -37.27814
1.536                  0.9792238       -37.47498
1.54                   0.9787551       -37.67288
1.544                   0.978275       -37.87184
1.548                  0.9777837       -38.07186
1.552                  0.9772814       -38.27295
1.556                   0.976768       -38.47511
1.56                   0.9762439       -38.67834
1.564                  0.9757089       -38.88265
1.568                  0.9751633       -39.08805
1.572                  0.9746073       -39.29452
1.576                  0.9740409        -39.5021
1.58                   0.9734642       -39.71078
1.584                  0.9728776       -39.92057
1.588                  0.9722812       -40.13147
1.592                  0.9716749       -40.34352
1.596                  0.9710591       -40.55672
1.6                    0.9704339       -40.77107
1.604                  0.9697996        -40.9866
1.608                  0.9691562       -41.20333
1.612                   0.968504       -41.42127
1.616                  0.9678431       -41.64042
1.62                   0.9671736       -41.86084
1.624                  0.9664959       -42.08252
1.628                  0.9658098       -42.30551
1.632                  0.9651158        -42.5298
1.636                  0.9644139       -42.75545
1.64                   0.9637042       -42.98246
1.644                  0.9629868       -43.21088
1.648                   0.962262       -43.44072
1.652                  0.9615298       -43.67202
1.656                  0.9607903       -43.90482
1.66                   0.9600437       -44.13915
1.664                  0.9592898       -44.37503
1.668                   0.958529       -44.61252
1.672                  0.9577611       -44.85165
1.676                  0.9569863       -45.09245
1.68                   0.9562045       -45.33496
1.684                  0.9554158       -45.57924
1.688                  0.9546203       -45.82532
1.692                  0.9538174       -46.07324
1.696                  0.9530076       -46.32307
1.7                    0.9521906       -46.57482
1.704                  0.9513662       -46.82857
1.708                  0.9505346       -47.08435
1.712                  0.9496953       -47.34222
1.716                  0.9488484       -47.60222
1.72                   0.9479934       -47.86442
1.724                  0.9471303       -48.12885
1.728                  0.9462587       -48.39558
1.732                  0.9453785       -48.66466
1.736                  0.9444893       -48.93615
1.74                   0.9435908        -49.2101
1.744                  0.9426823       -49.48657
1.748                   0.941764       -49.76561
1.752                   0.940835       -50.04729
1.756                  0.9398951       -50.33166
1.76                   0.9389437       -50.61878
1.764                  0.9379804       -50.90871
1.768                  0.9370046       -51.20152
1.772                  0.9360157       -51.49726
1.776                  0.9350131       -51.79598
1.78                   0.9339962       -52.09776
1.784                  0.9329645       -52.40265
1.788                  0.9319172       -52.71071
1.792                  0.9308536         -53.022
1.796                  0.9297727        -53.3366
1.8                    0.9286743       -53.65453
1.804                   0.927557       -53.97589
1.808                  0.9264205       -54.30072
1.812                  0.9252637       -54.62909
1.816                  0.9240858       -54.96105
1.82                   0.9228859       -55.29666
1.824                   0.921663       -55.63598
1.828                  0.9204163       -55.97908
1.832                  0.9191447       -56.32599
1.836                  0.9178474       -56.67681
1.84                   0.9165232       -57.03156
1.844                  0.9151712       -57.39032
1.848                  0.9137905       -57.75311
1.852                  0.9123798       -58.12002
1.856                  0.9109382        -58.4911
1.86                   0.9094645       -58.86639
1.864                  0.9079577       -59.24594
1.868                  0.9064166       -59.62984
1.872                  0.9048402       -60.01811
1.876                  0.9032272       -60.41079
1.88                   0.9015767       -60.80795
1.884                  0.8998873       -61.20965
1.888                   0.898158       -61.61591
1.892                  0.8963877       -62.02679
1.896                   0.894575       -62.44234
1.9                     0.892719       -62.86261
1.904                  0.8908184       -63.28764
1.908                  0.8888721       -63.71748
1.912                  0.8868788       -64.15218
1.916                  0.8848375       -64.59177
1.92                   0.8827472       -65.03628
1.924                  0.8806065       -65.48579
1.928                  0.8784144       -65.94032
1.932                  0.8761697       -66.39991
1.936                  0.8738713       -66.86461
1.94                    0.871518       -67.33447
1.944                  0.8691091        -67.8095
1.948                  0.8666431       -68.28977
1.952                  0.8641192        -68.7753
1.956                  0.8615364       -69.26613
1.96                   0.8588934       -69.76233
1.964                  0.8561895       -70.26389
1.968                  0.8534237       -70.77088
1.972                   0.850595       -71.28333
1.976                  0.8477023       -71.80131
1.98                   0.8447451        -72.3248
1.984                  0.8417222        -72.8539
1.988                  0.8386329        -73.3886
1.992                  0.8354765       -73.92897
1.996                   0.832252       -74.47505
2                      0.8289589       -75.02686
2.004                  0.8255963       -75.58447
2.008                  0.8221638        -76.1479
2.012                  0.8186605       -76.71723
2.016                  0.8150859       -77.29245
2.02                   0.8114393       -77.87365
2.024                  0.8077206       -78.46085
2.028                   0.803929       -79.05412
2.032                  0.8000643        -79.6535
2.036                  0.7961258       -80.25903
2.04                   0.7921134       -80.87079
2.044                  0.7880268       -81.48881
2.048                  0.7838657       -82.11317
2.052                  0.7796299        -82.7439
2.056                  0.7753193        -83.3811
2.06                   0.7709336       -84.02481
2.064                  0.7664731       -84.67507
2.068                  0.7619377       -85.33199
2.072                  0.7573273       -85.99566
2.076                  0.7526421       -86.66609
2.08                   0.7478822       -87.34343
2.084                   0.743048       -88.02771
2.088                  0.7381396       -88.71903
2.092                  0.7331574       -89.41749
2.096                  0.7281017       -90.12318
2.1                    0.7229732        -90.8362
2.104                  0.7177721       -91.55665
2.108                  0.7124993       -92.28465
2.112                  0.7071552        -93.0203
2.116                  0.7017405       -93.76373
2.12                    0.696256       -94.51506
2.124                  0.6907024       -95.27443
2.128                  0.6850808       -96.04196
2.132                   0.679392       -96.81782
2.136                  0.6736372       -97.60216
2.14                   0.6678172       -98.39511
2.144                  0.6619334       -99.19687
2.148                  0.6559867       -100.0076
2.152                  0.6499786       -100.8275
2.156                  0.6439108       -101.6567
2.16                    0.637784       -102.4955
2.164                  0.6316004       -103.3441
2.168                  0.6253611       -104.2027
2.172                  0.6190681       -105.0715
2.176                  0.6127229       -105.9509
2.18                   0.6063275       -106.8409
2.184                  0.5998836        -107.742
2.188                  0.5933934       -108.6544
2.192                  0.5868589       -109.5784
2.196                  0.5802821       -110.5143
2.2                    0.5736653       -111.4625
2.204                   0.567011       -112.4233
2.208                  0.5603215       -113.3971
2.212                  0.5535994       -114.3843
2.216                  0.5468473       -115.3852
2.22                   0.5400678       -116.4003
2.224                  0.5332638       -117.4301
2.228                  0.5264383       -118.4749
2.232                  0.5195943       -119.5354
2.236                   0.512735       -120.6119
2.24                   0.5058638       -121.7051
2.244                  0.4989838       -122.8155
2.248                  0.4920987       -123.9436
2.252                  0.4852122       -125.0901
2.256                  0.4783281       -126.2556
2.26                   0.4714502       -127.4409
2.264                  0.4645827       -128.6464
2.268                  0.4577299       -129.8731
2.272                  0.4508962       -131.1216
2.276                   0.444086       -132.3927
2.28                   0.4373042       -133.6871
2.284                  0.4305556       -135.0058
2.288                  0.4238453       -136.3496
2.292                  0.4171787       -137.7193
2.296                  0.4105613       -139.1159
2.3                    0.4039985       -140.5402
2.304                  0.3974965       -141.9932
2.308                  0.3910611       -143.4759
2.312                  0.3846988       -144.9891
2.316                  0.3784161       -146.5339
2.32                   0.3722196       -148.1112
2.324                  0.3661165       -149.7219
2.328                  0.3601138        -151.367
2.332                  0.3542189       -153.0472
2.336                  0.3484394       -154.7636
2.34                   0.3427831       -156.5168
2.344                  0.3372581       -158.3076
2.348                  0.3318724       -160.1366
2.352                  0.3266343       -162.0043