! TOUCHSTONE file generated by CST MICROWAVE STUDIO
! Date and time: Sat May 14 10:20:42 2022
! Project name: AppElm_antenne_dipole_Alumina.cst
! Parameters = {L=33; e=0.035; f=2.45e+09; h=1.6; i=0.8; l1=1.9; lambda=122.449; ls=30; wl=1.7; ws=80}
! Header version: 2018
! Port assignment regex: !\s*Touchstone port\s*([0-9]+)\s*=\s*(CST MWS port|CST DS port)\s*([0-9]+|Zmin|Zmax)\s*\(\"(.*)\"\)(\s*mode\s*([0-9]+))?.*
! Touchstone port assignment:
! Touchstone port 1 = CST MWS port 1 ("")
# GHz S MA R 50
0                              1              -0
0.004                  0.9999985     -0.06896366
0.008                  0.9999944      -0.1379198
0.012                  0.9999872      -0.2068609
0.016                  0.9999773      -0.2757795
0.02                   0.9999646      -0.3446682
0.024                  0.9999492      -0.4135197
0.028                  0.9999309      -0.4823269
0.032                  0.9999101      -0.5510825
0.036                  0.9998866      -0.6197795
0.04                   0.9998607      -0.6884114
0.044                   0.999832      -0.7569714
0.048                  0.9998011      -0.8254532
0.052                  0.9997678      -0.8938505
0.056                  0.9997323      -0.9621574
0.06                   0.9996946       -1.030368
0.064                  0.9996548       -1.098478
0.068                  0.9996132        -1.16648
0.072                  0.9995696       -1.234372
0.076                  0.9995242       -1.302147
0.08                   0.9994774       -1.369802
0.084                  0.9994288       -1.437333
0.088                   0.999379       -1.504736
0.092                  0.9993278       -1.572008
0.096                  0.9992756       -1.639148
0.1                    0.9992223       -1.706151
0.104                  0.9991682       -1.773016
0.108                  0.9991135       -1.839742
0.112                  0.9990582       -1.906327
0.116                  0.9990023       -1.972771
0.12                   0.9989462       -2.039073
0.124                    0.99889       -2.105233
0.128                  0.9988337       -2.171252
0.132                  0.9987777       -2.237131
0.136                  0.9987218        -2.30287
0.14                   0.9986664       -2.368473
0.144                  0.9986117        -2.43394
0.148                  0.9985575       -2.499275
0.152                  0.9985044       -2.564481
0.156                  0.9984521        -2.62956
0.16                   0.9984011       -2.694517
0.164                  0.9983512       -2.759356
0.168                  0.9983029       -2.824081
0.172                  0.9982559       -2.888699
0.176                  0.9982107       -2.953213
0.18                   0.9981672       -3.017629
0.184                  0.9981254       -3.081954
0.188                  0.9980859       -3.146194
0.192                  0.9980483       -3.210355
0.196                  0.9980129       -3.274445
0.2                      0.99798       -3.338471
0.204                  0.9979492       -3.402441
0.208                  0.9979208       -3.466361
0.212                   0.997895       -3.530241
0.216                  0.9978719       -3.594089
0.22                   0.9978514       -3.657911
0.224                  0.9978335       -3.721719
0.228                  0.9978185        -3.78552
0.232                  0.9978062       -3.849322
0.236                  0.9977967       -3.913137
0.24                   0.9977901       -3.976972
0.244                  0.9977863       -4.040836
0.248                  0.9977855       -4.104739
0.252                  0.9977875        -4.16869
0.256                  0.9977925       -4.232699
0.26                   0.9978003       -4.296773
0.264                  0.9978109       -4.360925
0.268                  0.9978244       -4.425161
0.272                  0.9978406       -4.489492
0.276                  0.9978596       -4.553925
0.28                   0.9978815       -4.618471
0.284                  0.9979057       -4.683138
0.288                  0.9979327       -4.747934
0.292                  0.9979622       -4.812868
0.296                  0.9979941       -4.877948
0.3                    0.9980284       -4.943183
0.304                   0.998065       -5.008578
0.308                  0.9981036       -5.074144
0.312                  0.9981445       -5.139886
0.316                  0.9981872       -5.205812
0.32                   0.9982319       -5.271927
0.324                  0.9982783       -5.338239
0.328                  0.9983263       -5.404753
0.332                  0.9983759       -5.471475
0.336                  0.9984268        -5.53841
0.34                   0.9984789       -5.605564
0.344                  0.9985322       -5.672939
0.348                  0.9985864       -5.740541
0.352                  0.9986413       -5.808375
0.356                  0.9986971        -5.87644
0.36                   0.9987533       -5.944743
0.364                  0.9988098       -6.013284
0.368                  0.9988667       -6.082067
0.372                  0.9989237       -6.151091
0.376                  0.9989804       -6.220359
0.38                    0.999037       -6.289872
0.384                  0.9990932       -6.359628
0.388                  0.9991488        -6.42963
0.392                  0.9992038       -6.499875
0.396                  0.9992581       -6.570363
0.4                    0.9993113       -6.641092
0.404                  0.9993634       -6.712061
0.408                  0.9994142       -6.783267
0.412                  0.9994636       -6.854707
0.416                  0.9995116        -6.92638
0.42                   0.9995578        -6.99828
0.424                  0.9996023       -7.070404
0.428                  0.9996447       -7.142749
0.432                  0.9996853       -7.215309
0.436                  0.9997236        -7.28808
0.44                   0.9997595       -7.361057
0.444                  0.9997932       -7.434234
0.448                  0.9998245       -7.507604
0.452                  0.9998531       -7.581163
0.456                   0.999879       -7.654904
0.46                   0.9999024        -7.72882
0.464                  0.9999228       -7.802906
0.468                  0.9999403       -7.877152
0.472                  0.9999551       -7.951553
0.476                  0.9999667       -8.026101
0.48                   0.9999754       -8.100788
0.484                  0.9999809       -8.175609
0.488                  0.9999834       -8.250553
0.492                  0.9999827       -8.325614
0.496                   0.999979       -8.400784
0.5                    0.9999723       -8.476056
0.504                  0.9999621        -8.55142
0.508                   0.999949       -8.626871
0.512                  0.9999326       -8.702398
0.516                  0.9999134       -8.777995
0.52                   0.9998909       -8.853655
0.524                  0.9998653        -8.92937
0.528                  0.9998371       -9.005131
0.532                  0.9998058       -9.080933
0.536                  0.9997716       -9.156766
0.54                   0.9997346       -9.232628
0.544                  0.9996949       -9.308508
0.548                  0.9996525         -9.3844
0.552                  0.9996078         -9.4603
0.556                  0.9995606       -9.536199
0.56                    0.999511       -9.612093
0.564                  0.9994592       -9.687978
0.568                  0.9994054       -9.763844
0.572                  0.9993493       -9.839693
0.576                  0.9992916       -9.915516
0.58                   0.9992321       -9.991312
0.584                   0.999171       -10.06707
0.588                  0.9991084        -10.1428
0.592                  0.9990445       -10.21849
0.596                  0.9989796       -10.29414
0.6                    0.9989135       -10.36975
0.604                  0.9988466       -10.44531
0.608                  0.9987789       -10.52083
0.612                  0.9987107        -10.5963
0.616                  0.9986422       -10.67173
0.62                   0.9985733       -10.74711
0.624                  0.9985044       -10.82245
0.628                  0.9984355       -10.89774
0.632                   0.998367       -10.97299
0.636                  0.9982988       -11.04821
0.64                   0.9982312       -11.12339
0.644                  0.9981642       -11.19854
0.648                  0.9980983       -11.27365
0.652                  0.9980333       -11.34875
0.656                  0.9979695       -11.42382
0.66                    0.997907       -11.49888
0.664                   0.997846       -11.57393
0.668                  0.9977866       -11.64898
0.672                   0.997729       -11.72403
0.676                  0.9976733       -11.79908
0.68                   0.9976195       -11.87416
0.684                   0.997568       -11.94927
0.688                  0.9975186        -12.0244
0.692                  0.9974717       -12.09958
0.696                  0.9974272       -12.17481
0.7                    0.9973853        -12.2501
0.704                   0.997346       -12.32546
0.708                  0.9973096        -12.4009
0.712                   0.997276       -12.47642
0.716                  0.9972451       -12.55205
0.72                   0.9972174       -12.62778
0.724                  0.9971926       -12.70364
0.728                  0.9971708       -12.77963
0.732                  0.9971523       -12.85576
0.736                  0.9971367       -12.93205
0.74                   0.9971244        -13.0085
0.744                  0.9971153       -13.08513
0.748                  0.9971094       -13.16194
0.752                  0.9971064       -13.23896
0.756                  0.9971068       -13.31618
0.76                   0.9971102       -13.39363
0.764                  0.9971167       -13.47132
0.768                  0.9971264       -13.54925
0.772                  0.9971389       -13.62743
0.776                  0.9971545       -13.70589
0.78                   0.9971729       -13.78463
0.784                  0.9971942       -13.86365
0.788                  0.9972182       -13.94298
0.792                  0.9972447       -14.02262
0.796                  0.9972739       -14.10258
0.8                    0.9973054       -14.18287
0.804                  0.9973394       -14.26351
0.808                  0.9973755        -14.3445
0.812                  0.9974136       -14.42584
0.816                  0.9974537       -14.50756
0.82                   0.9974957       -14.58966
0.824                  0.9975393       -14.67214
0.828                  0.9975843       -14.75501
0.832                  0.9976306       -14.83829
0.836                  0.9976782       -14.92198
0.84                   0.9977268       -15.00608
0.844                  0.9977761        -15.0906
0.848                  0.9978263       -15.17554
0.852                  0.9978768       -15.26092
0.856                  0.9979277       -15.34673
0.86                   0.9979786       -15.43299
0.864                  0.9980294       -15.51968
0.868                  0.9980802       -15.60683
0.872                  0.9981304       -15.69442
0.876                    0.99818       -15.78246
0.88                   0.9982286       -15.87096
0.884                  0.9982764       -15.95991
0.888                   0.998323       -16.04931
0.892                  0.9983681       -16.13917
0.896                  0.9984117       -16.22948
0.9                    0.9984535       -16.32024
0.904                  0.9984934       -16.41146
0.908                  0.9985311       -16.50312
0.912                  0.9985665       -16.59523
0.916                  0.9985996       -16.68779
0.92                     0.99863       -16.78078
0.924                  0.9986576       -16.87421
0.928                  0.9986821       -16.96808
0.932                  0.9987038       -17.06237
0.936                   0.998722       -17.15709
0.94                   0.9987369       -17.25222
0.944                  0.9987484       -17.34776
0.948                  0.9987562       -17.44371
0.952                  0.9987601       -17.54006
0.956                  0.9987603        -17.6368
0.96                   0.9987564       -17.73393
0.964                  0.9987485       -17.83143
0.968                  0.9987363       -17.92931
0.972                    0.99872       -18.02754
0.976                  0.9986996       -18.12613
0.98                   0.9986746       -18.22507
0.984                  0.9986452       -18.32434
0.988                  0.9986113       -18.42395
0.992                   0.998573       -18.52388
0.996                  0.9985303       -18.62411
1                       0.998483       -18.72466
1.004                  0.9984313        -18.8255
1.008                   0.998375       -18.92663
1.012                  0.9983141       -19.02805
1.016                  0.9982489       -19.12971
1.02                   0.9981791       -19.23167
1.024                   0.998105       -19.33382
1.028                  0.9980268       -19.43628
1.032                  0.9979441       -19.53897
1.036                  0.9978574       -19.64186
1.04                   0.9977665       -19.74503
1.044                  0.9976715       -19.84836
1.048                  0.9975728       -19.95193
1.052                  0.9974702       -20.05569
1.056                  0.9973639       -20.15967
1.06                   0.9972541       -20.26385
1.064                  0.9971409       -20.36819
1.068                  0.9970246       -20.47272
1.072                   0.996905       -20.57746
1.076                  0.9967825       -20.68235
1.08                   0.9966572       -20.78742
1.084                  0.9965293       -20.89263
1.088                  0.9963988       -20.99804
1.092                  0.9962661       -21.10361
1.096                  0.9961314       -21.20937
1.1                    0.9959948       -21.31526
1.104                  0.9958563       -21.42132
1.108                  0.9957164       -21.52757
1.112                  0.9955751       -21.63399
1.116                  0.9954328       -21.74054
1.12                   0.9952895        -21.8473
1.124                  0.9951455       -21.95418
1.128                  0.9950008       -22.06131
1.132                   0.994856        -22.1686
1.136                  0.9947109       -22.27609
1.14                   0.9945659       -22.38377
1.144                  0.9944212       -22.49165
1.148                   0.994277       -22.59975
1.152                  0.9941334       -22.70806
1.156                  0.9939906       -22.81661
1.16                   0.9938489       -22.92539
1.164                  0.9937083       -23.03443
1.168                  0.9935692       -23.14372
1.172                  0.9934315       -23.25329
1.176                  0.9932956       -23.36313
1.18                   0.9931615       -23.47328
1.184                  0.9930295       -23.58373
1.188                  0.9928996       -23.69451
1.192                  0.9927719       -23.80562
1.196                  0.9926468       -23.91709
1.2                     0.992524       -24.02893
1.204                   0.992404       -24.14114
1.208                  0.9922865       -24.25376
1.212                   0.992172        -24.3668
1.216                  0.9920604       -24.48027
1.22                   0.9919516       -24.59419
1.224                  0.9918458       -24.70859
1.228                  0.9917431       -24.82347
1.232                  0.9916435       -24.93886
1.236                   0.991547       -25.05477
1.24                   0.9914535       -25.17123
1.244                  0.9913632       -25.28825
1.248                  0.9912759       -25.40585
1.252                  0.9911914       -25.52407
1.256                  0.9911101        -25.6429
1.26                   0.9910317       -25.76237
1.264                  0.9909561        -25.8825
1.268                  0.9908835       -26.00332
1.272                  0.9908133       -26.12484
1.276                  0.9907457       -26.24708
1.28                   0.9906806       -26.37005
1.284                  0.9906178       -26.49379
1.288                  0.9905572       -26.61831
1.292                  0.9904985       -26.74362
1.296                  0.9904417       -26.86975
1.3                    0.9903865       -26.99672
1.304                  0.9903328       -27.12454
1.308                  0.9902803       -27.25323
1.312                  0.9902289        -27.3828
1.316                  0.9901783       -27.51328
1.32                   0.9901282       -27.64468
1.324                  0.9900786       -27.77701
1.328                  0.9900289        -27.9103
1.332                  0.9899791       -28.04456
1.336                  0.9899288        -28.1798
1.34                   0.9898778       -28.31603
1.344                  0.9898259       -28.45327
1.348                  0.9897726       -28.59154
1.352                  0.9897176       -28.73083
1.356                  0.9896607       -28.87118
1.36                   0.9896017       -29.01258
1.364                    0.98954       -29.15505
1.368                  0.9894755       -29.29859
1.372                  0.9894081       -29.44322
1.376                  0.9893369       -29.58894
1.38                    0.989262       -29.73576
1.384                   0.989183       -29.88369
1.388                  0.9890995       -30.03274
1.392                  0.9890111       -30.18291
1.396                  0.9889178        -30.3342
1.4                    0.9888189       -30.48661
1.404                  0.9887143       -30.64017
1.408                  0.9886037       -30.79486
1.412                  0.9884867       -30.95068
1.416                  0.9883631       -31.10765
1.42                   0.9882324       -31.26576
1.424                  0.9880944       -31.42501
1.428                  0.9879488        -31.5854
1.432                  0.9877955       -31.74693
1.436                  0.9876338       -31.90961
1.44                   0.9874639       -32.07342
1.444                  0.9872853       -32.23837
1.448                  0.9870977       -32.40445
1.452                  0.9869009       -32.57166
1.456                  0.9866947          -32.74
1.46                    0.986479       -32.90946
1.464                  0.9862534       -33.08004
1.468                  0.9860176       -33.25173
1.472                  0.9857716       -33.42455
1.476                  0.9855152       -33.59846
1.48                   0.9852482       -33.77347
1.484                  0.9849705       -33.94958
1.488                  0.9846819       -34.12678
1.492                  0.9843822       -34.30507
1.496                  0.9840715       -34.48444
1.5                    0.9837493       -34.66487
1.504                  0.9834158       -34.84639
1.508                  0.9830711       -35.02896
1.512                  0.9827149       -35.21259
1.516                  0.9823471       -35.39728
1.52                   0.9819676       -35.58301
1.524                  0.9815766       -35.76979
1.528                   0.981174       -35.95762
1.532                  0.9807598       -36.14648
1.536                   0.980334       -36.33638
1.54                   0.9798966       -36.52731
1.544                  0.9794477       -36.71927
1.548                  0.9789874       -36.91225
1.552                  0.9785156       -37.10627
1.556                  0.9780324       -37.30131
1.56                   0.9775381       -37.49738
1.564                  0.9770325       -37.69448
1.568                  0.9765159       -37.89261
1.572                  0.9759885       -38.09177
1.576                  0.9754501       -38.29197
1.58                    0.974901       -38.49321
1.584                  0.9743414       -38.69549
1.588                  0.9737715       -38.89884
1.592                  0.9731912       -39.10324
1.596                  0.9726009       -39.30871
1.6                    0.9720006       -39.51526
1.604                  0.9713906        -39.7229
1.608                  0.9707711       -39.93164
1.612                   0.970142        -40.1415
1.616                  0.9695038       -40.35249
1.62                   0.9688567       -40.56462
1.624                  0.9682004       -40.77791
1.628                  0.9675354       -40.99238
1.632                   0.966862       -41.20805
1.636                  0.9661803       -41.42494
1.64                   0.9654903       -41.64308
1.644                  0.9647921       -41.86248
1.648                  0.9640862       -42.08317
1.652                  0.9633725       -42.30516
1.656                  0.9626512       -42.52851
1.66                   0.9619223       -42.75323
1.664                  0.9611863       -42.97935
1.668                  0.9604428       -43.20691
1.672                  0.9596922       -43.43593
1.676                  0.9589347       -43.66646
1.68                   0.9581701       -43.89851
1.684                  0.9573984       -44.13215
1.688                  0.9566201       -44.36739
1.692                  0.9558347       -44.60429
1.696                  0.9550425       -44.84288
1.7                    0.9542435        -45.0832
1.704                  0.9534374       -45.32531
1.708                  0.9526244       -45.56923
1.712                  0.9518043       -45.81502
1.716                  0.9509772       -46.06273
1.72                   0.9501427        -46.3124
1.724                  0.9493009       -46.56407
1.728                  0.9484515       -46.81781
1.732                  0.9475943       -47.07367
1.736                  0.9467291       -47.33169
1.74                   0.9458558       -47.59192
1.744                  0.9449739       -47.85442
1.748                  0.9440834       -48.11924
1.752                  0.9431837       -48.38644
1.756                  0.9422744       -48.65608
1.76                   0.9413555       -48.92821
1.764                  0.9404263       -49.20289
1.768                  0.9394865       -49.48017
1.772                  0.9385353       -49.76012
1.776                  0.9375727       -50.04278
1.78                   0.9365979       -50.32823
1.784                  0.9356104       -50.61651
1.788                  0.9346097       -50.90769
1.792                   0.933595       -51.20183
1.796                   0.932566       -51.49898
1.8                    0.9315216       -51.79921
1.804                  0.9304614       -52.10258
1.808                  0.9293847       -52.40914
1.812                  0.9282906       -52.71895
1.816                  0.9271784       -53.03208
1.82                   0.9260473       -53.34858
1.824                  0.9248965       -53.66851
1.828                  0.9237252       -53.99193
1.832                  0.9225323       -54.31889
1.836                  0.9213171       -54.64946
1.84                   0.9200788       -54.98369
1.844                  0.9188161       -55.32165
1.848                  0.9175283       -55.66337
1.852                  0.9162144       -56.00893
1.856                  0.9148733       -56.35837
1.86                    0.913504       -56.71175
1.864                  0.9121055       -57.06913
1.868                  0.9106769       -57.43056
1.872                  0.9092167       -57.79609
1.876                  0.9077242       -58.16578
1.88                   0.9061981       -58.53966
1.884                  0.9046375       -58.91779
1.888                   0.903041       -59.30024
1.892                  0.9014078       -59.68704
1.896                  0.8997364       -60.07824
1.9                    0.8980259        -60.4739
1.904                  0.8962751       -60.87404
1.908                   0.894483       -61.27872
1.912                  0.8926481         -61.688
1.916                  0.8907695       -62.10191
1.92                   0.8888459       -62.52049
1.924                  0.8868763       -62.94378
1.928                  0.8848594       -63.37184
1.932                  0.8827941       -63.80471
1.936                  0.8806794       -64.24242
1.94                   0.8785141       -64.68501
1.944                  0.8762969       -65.13253
1.948                  0.8740269       -65.58502
1.952                  0.8717028        -66.0425
1.956                  0.8693237       -66.50503
1.96                   0.8668885       -66.97264
1.964                   0.864396       -67.44537
1.968                  0.8618452       -67.92325
1.972                  0.8592352       -68.40632
1.976                   0.856565       -68.89463
1.98                   0.8538334        -69.3882
1.984                  0.8510396       -69.88708
1.988                  0.8481827       -70.39129
1.992                  0.8452616        -70.9009
1.996                  0.8422756       -71.41589
2                      0.8392239       -71.93636
2.004                  0.8361055       -72.46231
2.008                  0.8329197       -72.99378
2.012                  0.8296656       -73.53082
2.016                  0.8263427       -74.07347
2.02                   0.8229501       -74.62177
2.024                  0.8194872       -75.17575
2.028                  0.8159534       -75.73545
2.032                  0.8123482       -76.30093
2.036                  0.8086709        -76.8722
2.04                   0.8049211       -77.44935
2.044                  0.8010981       -78.03239
2.048                  0.7972018       -78.62139
2.052                  0.7932316       -79.21638
2.056                  0.7891872       -79.81743
2.06                   0.7850683       -80.42458
2.064                  0.7808748       -81.03788
2.068                  0.7766063       -81.65738
2.072                  0.7722627       -82.28318
2.076                   0.767844        -82.9153
2.08                     0.76335        -83.5538
2.084                  0.7587807       -84.19877
2.088                  0.7541362       -84.85027
2.092                  0.7494166       -85.50838
2.096                   0.744622       -86.17317
2.1                    0.7397526       -86.84472
2.104                  0.7348089       -87.52311
2.108                  0.7297908       -88.20842
2.112                  0.7246989       -88.90077
2.116                  0.7195337       -89.60021
2.12                   0.7142954       -90.30689
2.124                  0.7089848       -91.02086
2.128                  0.7036024       -91.74229
2.132                  0.6981489       -92.47126
2.136                  0.6926249       -93.20791
2.14                   0.6870313       -93.95235
2.144                   0.681369       -94.70474
2.148                  0.6756387       -95.46518
2.152                  0.6698415       -96.23386
2.156                  0.6639785       -97.01093
2.16                   0.6580507       -97.79654
2.164                  0.6520593       -98.59087
2.168                  0.6460055       -99.39408
2.172                  0.6398905       -100.2064
2.176                   0.633716        -101.028
2.18                   0.6274833       -101.8591
2.184                  0.6211938          -102.7
2.188                  0.6148491       -103.5508
2.192                   0.608451       -104.4118
2.196                  0.6020013       -105.2833
2.2                    0.5955015       -106.1655
2.204                  0.5889539       -107.0588
2.208                  0.5823602       -107.9634
2.212                  0.5757225       -108.8797
2.216                  0.5690432       -109.8079
2.22                   0.5623243       -110.7484
2.224                  0.5555682       -111.7017
2.228                  0.5487773        -112.668
2.232                  0.5419542       -113.6479
2.236                  0.5351015       -114.6416
2.24                   0.5282219       -115.6498
2.244                  0.5213182       -116.6728
2.248                  0.5143934       -117.7111
2.252                  0.5074506       -118.7654
2.256                  0.5004927        -119.836
2.26                   0.4935233       -120.9236
2.264                  0.4865457       -122.0288
2.268                  0.4795635       -123.1522
2.272                  0.4725803       -124.2946
2.276                  0.4655999       -125.4564
2.28                   0.4586263       -126.6386
2.284                  0.4516637       -127.8419
2.288                  0.4447162        -129.067
2.292                  0.4377885       -130.3147
2.296                  0.4308851        -131.586
2.3                    0.4240107       -132.8816
2.304                  0.4171704       -134.2026
2.308                  0.4103694       -135.5499
2.312                  0.4036131       -136.9244
2.316                   0.396907       -138.3272
2.32                   0.3902571       -139.7594
2.324                  0.3836692       -141.2218
2.328                  0.3771498       -142.7158
2.332                  0.3707054       -144.2423
2.336                  0.3643427       -145.8025
2.34                   0.3580687       -147.3975
2.344                  0.3518906       -149.0283
2.348                   0.345816       -150.6961
2.352                  0.3398527       -152.4019