! TOUCHSTONE file generated by CST MICROWAVE STUDIO
! Date and time: Sat May 14 10:20:45 2022
! Project name: AppElm_antenne_dipole_Alumina.cst
! Parameters = {L=33; e=0.035; f=2.45e+09; h=1.6; i=0.8; l1=2.2; lambda=122.449; ls=30; wl=1.7; ws=80}
! Header version: 2018
! Port assignment regex: !\s*Touchstone port\s*([0-9]+)\s*=\s*(CST MWS port|CST DS port)\s*([0-9]+|Zmin|Zmax)\s*\(\"(.*)\"\)(\s*mode\s*([0-9]+))?.*
! Touchstone port assignment:
! Touchstone port 1 = CST MWS port 1 ("")
# GHz S MA R 50
0                              1              -0
0.004                  0.9999986     -0.07110089
0.008                  0.9999947      -0.1421948
0.012                   0.999988      -0.2132746
0.016                  0.9999789      -0.2843335
0.02                   0.9999671      -0.3553647
0.024                  0.9999526      -0.4263611
0.028                  0.9999357      -0.4973162
0.032                  0.9999163      -0.5682234
0.036                  0.9998946       -0.639076
0.04                   0.9998704       -0.709868
0.044                  0.9998438      -0.7805933
0.048                  0.9998151      -0.8512457
0.052                  0.9997841      -0.9218198
0.056                  0.9997512      -0.9923099
0.06                   0.9997162       -1.062711
0.064                  0.9996792       -1.133017
0.068                  0.9996405       -1.203225
0.072                  0.9996002        -1.27333
0.076                  0.9995581       -1.343327
0.08                   0.9995146       -1.413213
0.084                  0.9994698       -1.482984
0.088                  0.9994237       -1.552637
0.092                  0.9993764       -1.622171
0.096                   0.999328        -1.69158
0.1                     0.999279       -1.760865
0.104                   0.999229       -1.830024
0.108                  0.9991785       -1.899054
0.112                  0.9991275       -1.967955
0.116                   0.999076       -2.036727
0.12                   0.9990245       -2.105369
0.124                  0.9989728       -2.173883
0.128                  0.9989212       -2.242268
0.132                  0.9988697       -2.310525
0.136                  0.9988186       -2.378656
0.14                   0.9987679       -2.446664
0.144                   0.998718        -2.51455
0.148                  0.9986686       -2.582317
0.152                  0.9986202       -2.649968
0.156                  0.9985727       -2.717507
0.16                   0.9985264       -2.784937
0.164                  0.9984813       -2.852263
0.168                  0.9984375        -2.91949
0.172                  0.9983952       -2.986622
0.176                  0.9983546       -3.053664
0.18                   0.9983156       -3.120623
0.184                  0.9982784       -3.187504
0.188                  0.9982432       -3.254313
0.192                  0.9982098       -3.321058
0.196                  0.9981787       -3.387745
0.2                    0.9981496        -3.45438
0.204                  0.9981229       -3.520972
0.208                  0.9980985       -3.587528
0.212                  0.9980765       -3.654055
0.216                  0.9980568       -3.720563
0.22                   0.9980397       -3.787058
0.224                  0.9980252        -3.85355
0.228                  0.9980133       -3.920046
0.232                  0.9980039       -3.986556
0.236                  0.9979972       -4.053086
0.24                   0.9979932       -4.119649
0.244                  0.9979919        -4.18625
0.248                  0.9979933         -4.2529
0.252                  0.9979973       -4.319608
0.256                   0.998004       -4.386381
0.26                   0.9980134       -4.453229
0.264                  0.9980254       -4.520161
0.268                  0.9980399       -4.587185
0.272                  0.9980572       -4.654311
0.276                  0.9980769       -4.721545
0.28                    0.998099       -4.788898
0.284                  0.9981237       -4.856376
0.288                  0.9981506       -4.923989
0.292                  0.9981799       -4.991743
0.296                  0.9982112       -5.059648
0.3                    0.9982448        -5.12771
0.304                  0.9982803       -5.195936
0.308                  0.9983178       -5.264332
0.312                  0.9983572       -5.332906
0.316                  0.9983983       -5.401666
0.32                    0.998441       -5.470614
0.324                  0.9984852       -5.539759
0.328                  0.9985308       -5.609104
0.332                  0.9985776       -5.678656
0.336                  0.9986256       -5.748419
0.34                   0.9986746       -5.818398
0.344                  0.9987245       -5.888595
0.348                  0.9987751       -5.959015
0.352                  0.9988264       -6.029662
0.356                  0.9988782       -6.100535
0.36                   0.9989301       -6.171641
0.364                  0.9989823        -6.24298
0.368                  0.9990345       -6.314552
0.372                  0.9990868        -6.38636
0.376                  0.9991387       -6.458404
0.38                   0.9991903       -6.530686
0.384                  0.9992412       -6.603203
0.388                  0.9992915       -6.675956
0.392                   0.999341       -6.748944
0.396                  0.9993897       -6.822165
0.4                    0.9994371       -6.895619
0.404                  0.9994834       -6.969302
0.408                  0.9995282       -7.043212
0.412                  0.9995717       -7.117346
0.416                  0.9996135       -7.191701
0.42                   0.9996536       -7.266274
0.424                  0.9996918        -7.34106
0.428                  0.9997281       -7.416055
0.432                  0.9997624       -7.491254
0.436                  0.9997945       -7.566654
0.44                   0.9998243       -7.642246
0.444                  0.9998518        -7.71803
0.448                  0.9998768       -7.793995
0.452                  0.9998993       -7.870137
0.456                  0.9999192       -7.946452
0.46                   0.9999365       -8.022931
0.464                  0.9999511       -8.099567
0.468                  0.9999629       -8.176356
0.472                  0.9999719       -8.253288
0.476                  0.9999781       -8.330359
0.48                   0.9999812       -8.407559
0.484                  0.9999816       -8.484882
0.488                  0.9999789       -8.562323
0.492                  0.9999734       -8.639871
0.496                  0.9999652        -8.71752
0.5                    0.9999536       -8.795265
0.504                  0.9999393       -8.873096
0.508                   0.999922       -8.951005
0.512                  0.9999021       -9.028987
0.516                  0.9998791       -9.107035
0.52                   0.9998534        -9.18514
0.524                  0.9998249       -9.263299
0.528                  0.9997936       -9.341501
0.532                  0.9997599       -9.419742
0.536                  0.9997236       -9.498014
0.54                   0.9996847       -9.576313
0.544                  0.9996436       -9.654631
0.548                     0.9996       -9.732965
0.552                  0.9995541       -9.811308
0.556                  0.9995063       -9.889654
0.56                   0.9994565       -9.967999
0.564                  0.9994049       -10.04634
0.568                  0.9993512       -10.12467
0.572                  0.9992961       -10.20299
0.576                  0.9992396       -10.28129
0.58                   0.9991814       -10.35958
0.584                  0.9991221       -10.43784
0.588                  0.9990617       -10.51608
0.592                  0.9990004       -10.59429
0.596                  0.9989381       -10.67248
0.6                    0.9988753       -10.75064
0.604                  0.9988118       -10.82877
0.608                   0.998748       -10.90687
0.612                  0.9986839       -10.98495
0.616                  0.9986198       -11.06299
0.62                   0.9985558       -11.14102
0.624                  0.9984919       -11.21902
0.628                  0.9984285         -11.297
0.632                  0.9983655       -11.37496
0.636                  0.9983032        -11.4529
0.64                   0.9982418       -11.53084
0.644                  0.9981813       -11.60877
0.648                  0.9981219       -11.68669
0.652                  0.9980639       -11.76462
0.656                  0.9980072       -11.84256
0.66                    0.997952       -11.92051
0.664                  0.9978985       -11.99848
0.668                  0.9978466       -12.07648
0.672                  0.9977969       -12.15452
0.676                  0.9977491       -12.23259
0.68                   0.9977035       -12.31071
0.684                    0.99766        -12.3889
0.688                  0.9976188       -12.46715
0.692                  0.9975802       -12.54548
0.696                   0.997544       -12.62389
0.7                    0.9975105       -12.70239
0.704                  0.9974795         -12.781
0.708                  0.9974513       -12.85973
0.712                  0.9974259       -12.93858
0.716                  0.9974035       -13.01756
0.72                   0.9973837       -13.09669
0.724                  0.9973669       -13.17597
0.728                  0.9973531       -13.25542
0.732                  0.9973422       -13.33505
0.736                  0.9973342       -13.41487
0.74                   0.9973293       -13.49489
0.744                  0.9973273       -13.57512
0.748                  0.9973283       -13.65558
0.752                  0.9973321       -13.73626
0.756                   0.997339       -13.81719
0.76                   0.9973485       -13.89838
0.764                  0.9973608       -13.97984
0.768                  0.9973759       -14.06157
0.772                  0.9973937       -14.14359
0.776                   0.997414       -14.22591
0.78                   0.9974369       -14.30854
0.784                  0.9974622       -14.39149
0.788                  0.9974898       -14.47476
0.792                  0.9975196       -14.55838
0.796                  0.9975514       -14.64235
0.8                    0.9975854       -14.72667
0.804                  0.9976211       -14.81136
0.808                  0.9976586       -14.89642
0.812                  0.9976977       -14.98186
0.816                  0.9977382        -15.0677
0.82                   0.9977799       -15.15393
0.824                   0.997823       -15.24057
0.828                  0.9978669       -15.32762
0.832                  0.9979115       -15.41509
0.836                   0.997957       -15.50298
0.84                   0.9980029        -15.5913
0.844                  0.9980491       -15.68004
0.848                  0.9980955       -15.76923
0.852                  0.9981419       -15.85886
0.856                  0.9981878       -15.94893
0.86                   0.9982335       -16.03945
0.864                  0.9982786       -16.13042
0.868                  0.9983229       -16.22184
0.872                  0.9983663       -16.31371
0.876                  0.9984085       -16.40603
0.88                   0.9984496       -16.49881
0.884                   0.998489       -16.59204
0.888                  0.9985269       -16.68572
0.892                  0.9985628       -16.77986
0.896                  0.9985968       -16.87444
0.9                    0.9986286       -16.96947
0.904                   0.998658       -17.06495
0.908                   0.998685       -17.16087
0.912                  0.9987093       -17.25723
0.916                  0.9987308       -17.35403
0.92                   0.9987494       -17.45125
0.924                  0.9987648        -17.5489
0.928                   0.998777       -17.64697
0.932                  0.9987859       -17.74547
0.936                  0.9987913       -17.84436
0.94                   0.9987931       -17.94367
0.944                  0.9987911       -18.04337
0.948                  0.9987855       -18.14347
0.952                  0.9987759       -18.24395
0.956                  0.9987624        -18.3448
0.96                   0.9987449       -18.44603
0.964                  0.9987232       -18.54762
0.968                  0.9986973       -18.64957
0.972                  0.9986673       -18.75187
0.976                   0.998633       -18.85451
0.98                   0.9985943       -18.95747
0.984                  0.9985514       -19.06077
0.988                  0.9985043       -19.16438
0.992                  0.9984527        -19.2683
0.996                  0.9983968       -19.37252
1                      0.9983367       -19.47703
1.004                  0.9982724       -19.58184
1.008                  0.9982039       -19.68692
1.012                  0.9981311       -19.79227
1.016                  0.9980542       -19.89789
1.02                   0.9979732       -20.00376
1.024                  0.9978884       -20.10987
1.028                  0.9977995       -20.21623
1.032                   0.997707       -20.32281
1.036                  0.9976106       -20.42966
1.04                   0.9975107        -20.5367
1.044                  0.9974074       -20.64399
1.048                  0.9973006       -20.75147
1.052                  0.9971905       -20.85917
1.056                  0.9970774       -20.96709
1.06                   0.9969615       -21.07517
1.064                  0.9968427       -21.18349
1.068                  0.9967212       -21.29198
1.072                  0.9965973       -21.40069
1.076                   0.996471       -21.50959
1.08                   0.9963426       -21.61869
1.084                  0.9962123       -21.72797
1.088                  0.9960802       -21.83744
1.092                  0.9959465       -21.94711
1.096                  0.9958114       -22.05697
1.1                    0.9956751       -22.16701
1.104                  0.9955378       -22.27728
1.108                  0.9953997       -22.38776
1.112                  0.9952609       -22.49844
1.116                  0.9951216       -22.60931
1.12                   0.9949821       -22.72042
1.124                  0.9948425       -22.83175
1.128                   0.994703        -22.9433
1.132                  0.9945639        -23.0551
1.136                  0.9944252       -23.16714
1.14                   0.9942872       -23.27943
1.144                  0.9941501       -23.39199
1.148                   0.994014       -23.50482
1.152                  0.9938792       -23.61793
1.156                  0.9937456       -23.73135
1.16                   0.9936137       -23.84506
1.164                  0.9934833        -23.9591
1.168                  0.9933548       -24.07347
1.172                  0.9932283       -24.18819
1.176                  0.9931039       -24.30326
1.18                   0.9929817       -24.41871
1.184                  0.9928617       -24.53455
1.188                  0.9927442        -24.6508
1.192                  0.9926291       -24.76747
1.196                  0.9925168       -24.88458
1.2                    0.9924071       -25.00214
1.204                  0.9923002       -25.12018
1.208                   0.992196        -25.2387
1.212                  0.9920946       -25.35774
1.216                  0.9919962        -25.4773
1.22                   0.9919004       -25.59741
1.224                  0.9918079       -25.71808
1.228                  0.9917179       -25.83934
1.232                   0.991631       -25.96119
1.236                  0.9915467       -26.08367
1.24                   0.9914655       -26.20679
1.244                  0.9913868       -26.33058
1.248                  0.9913108       -26.45504
1.252                  0.9912374        -26.5802
1.256                  0.9911665       -26.70609
1.26                    0.991098       -26.83271
1.264                  0.9910317       -26.96009
1.268                  0.9909677       -27.08824
1.272                  0.9909054        -27.2172
1.276                  0.9908451       -27.34697
1.28                   0.9907865       -27.47757
1.284                  0.9907293       -27.60903
1.288                  0.9906734       -27.74135
1.292                  0.9906187       -27.87457
1.296                  0.9905648       -28.00869
1.3                    0.9905117       -28.14373
1.304                  0.9904588       -28.27971
1.308                  0.9904063       -28.41665
1.312                  0.9903537       -28.55455
1.316                  0.9903007       -28.69344
1.32                   0.9902474       -28.83333
1.324                   0.990193       -28.97423
1.328                  0.9901375       -29.11616
1.332                  0.9900806       -29.25914
1.336                   0.990022       -29.40317
1.34                   0.9899614       -29.54825
1.344                  0.9898986       -29.69442
1.348                   0.989833       -29.84168
1.352                  0.9897647       -29.99003
1.356                  0.9896931       -30.13948
1.36                   0.9896179       -30.29004
1.364                  0.9895389       -30.44173
1.368                  0.9894554       -30.59455
1.372                  0.9893678        -30.7485
1.376                  0.9892752        -30.9036
1.38                   0.9891774       -31.05984
1.384                  0.9890742       -31.21724
1.388                  0.9889654       -31.37578
1.392                  0.9888504       -31.53549
1.396                  0.9887289       -31.69636
1.4                    0.9886008       -31.85839
1.404                  0.9884657       -32.02159
1.408                  0.9883233       -32.18596
1.412                  0.9881734       -32.35149
1.416                  0.9880156       -32.51819
1.42                   0.9878498       -32.68605
1.424                  0.9876757       -32.85508
1.428                  0.9874927       -33.02527
1.432                  0.9873009       -33.19663
1.436                     0.9871       -33.36914
1.44                   0.9868897       -33.54282
1.444                  0.9866699       -33.71764
1.448                  0.9864402       -33.89361
1.452                  0.9862008       -34.07074
1.456                  0.9859509         -34.249
1.46                    0.985691        -34.4284
1.464                  0.9854203       -34.60894
1.468                  0.9851391       -34.79061
1.472                  0.9848471        -34.9734
1.476                  0.9845443       -35.15732
1.48                   0.9842303       -35.34235
1.484                  0.9839052       -35.52849
1.488                   0.983569       -35.71575
1.492                  0.9832215        -35.9041
1.496                  0.9828626       -36.09356
1.5                    0.9824922       -36.28411
1.504                  0.9821107       -36.47576
1.508                  0.9817175        -36.6685
1.512                   0.981313       -36.86232
1.516                   0.980897       -37.05723
1.52                   0.9804695       -37.25322
1.524                  0.9800308       -37.45029
1.528                  0.9795805       -37.64844
1.532                  0.9791191       -37.84768
1.536                  0.9786465       -38.04799
1.54                   0.9781626       -38.24939
1.544                  0.9776677       -38.45187
1.548                  0.9771618       -38.65544
1.552                  0.9766452       -38.86009
1.556                  0.9761178       -39.06584
1.56                   0.9755795       -39.27269
1.564                   0.975031       -39.48064
1.568                  0.9744721        -39.6897
1.572                  0.9739031       -39.89989
1.576                  0.9733238       -40.11121
1.58                   0.9727348       -40.32366
1.584                   0.972136       -40.53728
1.588                  0.9715276       -40.75205
1.592                  0.9709097         -40.968
1.596                  0.9702827       -41.18514
1.6                    0.9696468        -41.4035
1.604                  0.9690017       -41.62307
1.608                  0.9683479       -41.84391
1.612                  0.9676856         -42.066
1.616                   0.967015       -42.28937
1.62                   0.9663359       -42.51407
1.624                  0.9656489       -42.74009
1.628                  0.9649539       -42.96747
1.632                  0.9642511       -43.19624
1.636                  0.9635406       -43.42643
1.64                   0.9628225       -43.65805
1.644                  0.9620971       -43.89116
1.648                  0.9613643       -44.12578
1.652                  0.9606243       -44.36192
1.656                  0.9598771       -44.59966
1.66                    0.959123         -44.839
1.664                  0.9583616       -45.07999
1.668                  0.9575932       -45.32269
1.672                  0.9568179       -45.56711
1.676                  0.9560356        -45.8133
1.68                   0.9552463       -46.06131
1.684                  0.9544499       -46.31118
1.688                  0.9536465       -46.56295
1.692                  0.9528359       -46.81668
1.696                  0.9520178       -47.07241
1.7                    0.9511925       -47.33019
1.704                  0.9503596       -47.59006
1.708                  0.9495189       -47.85209
1.712                  0.9486703       -48.11632
1.716                  0.9478136        -48.3828
1.72                   0.9469484       -48.65161
1.724                  0.9460745       -48.92276
1.728                  0.9451918       -49.19634
1.732                  0.9442997       -49.47239
1.736                  0.9433979       -49.75099
1.74                   0.9424861       -50.03217
1.744                  0.9415638       -50.31599
1.748                  0.9406306       -50.60253
1.752                   0.939686       -50.89184
1.756                  0.9387295       -51.18397
1.76                   0.9377607       -51.47898
1.764                  0.9367788       -51.77695
1.768                  0.9357834       -52.07792
1.772                  0.9347738       -52.38196
1.776                  0.9337494       -52.68913
1.78                   0.9327095       -52.99949
1.784                  0.9316534        -53.3131
1.788                  0.9305804       -53.63003
1.792                  0.9294897       -53.95033
1.796                  0.9283804       -54.27407
1.8                    0.9272521       -54.60129
1.804                  0.9261036       -54.93208
1.808                   0.924934       -55.26648
1.812                  0.9237427       -55.60455
1.816                  0.9225286       -55.94636
1.82                   0.9212908       -56.29197
1.824                  0.9200283       -56.64143
1.828                  0.9187403       -56.99479
1.832                  0.9174257       -57.35212
1.836                  0.9160834       -57.71349
1.84                   0.9147124       -58.07893
1.844                  0.9133119       -58.44851
1.848                  0.9118803       -58.82228
1.852                   0.910417       -59.20031
1.856                  0.9089208       -59.58262
1.86                   0.9073905        -59.9693
1.864                   0.905825       -60.36038
1.868                  0.9042232       -60.75593
1.872                   0.902584       -61.15599
1.876                  0.9009063        -61.5606
1.88                   0.8991888       -61.96982
1.884                  0.8974304       -62.38371
1.888                    0.89563        -62.8023
1.892                  0.8937862       -63.22565
1.896                  0.8918983       -63.65379
1.9                    0.8899648       -64.08679
1.904                  0.8879847       -64.52467
1.908                  0.8859565        -64.9675
1.912                  0.8838796        -65.4153
1.916                  0.8817524       -65.86814
1.92                    0.879574       -66.32605
1.924                  0.8773433       -66.78907
1.928                  0.8750591       -67.25724
1.932                  0.8727203       -67.73061
1.936                  0.8703258       -68.20921
1.94                   0.8678746        -68.6931
1.944                  0.8653656        -69.1823
1.948                  0.8627977       -69.67687
1.952                  0.8601703       -70.17683
1.956                  0.8574817       -70.68223
1.96                   0.8547315       -71.19312
1.964                  0.8519185       -71.70954
1.968                   0.849042        -72.2315
1.972                  0.8461008       -72.75906
1.976                  0.8430943       -73.29228
1.98                   0.8400215       -73.83118
1.984                  0.8368816       -74.37582
1.988                   0.833674        -74.9262
1.992                  0.8303978       -75.48242
1.996                  0.8270524       -76.04448
2                       0.823637       -76.61244
2.004                  0.8201512       -77.18634
2.008                  0.8165942       -77.76622
2.012                  0.8129655       -78.35217
2.016                  0.8092647       -78.94417
2.02                   0.8054913       -79.54232
2.024                  0.8016447       -80.14665
2.028                  0.7977247       -80.75723
2.032                  0.7937308       -81.37409
2.036                  0.7896631        -81.9973
2.04                   0.7855208       -82.62694
2.044                  0.7813041       -83.26302
2.048                  0.7770128       -83.90565
2.052                  0.7726466       -84.55488
2.056                  0.7682058       -85.21077
2.06                   0.7636902       -85.87338
2.064                  0.7590997       -86.54282
2.068                  0.7544348       -87.21915
2.072                  0.7496955       -87.90244
2.076                   0.744882       -88.59278
2.08                   0.7399946       -89.29028
2.084                  0.7350335       -89.99499
2.088                  0.7299994       -90.70704
2.092                  0.7248924       -91.42652
2.096                  0.7197135       -92.15352
2.1                    0.7144629       -92.88818
2.104                  0.7091414       -93.63059
2.108                  0.7037496       -94.38088
2.112                  0.6982883       -95.13919
2.116                  0.6927584       -95.90565
2.12                   0.6871608       -96.68038
2.124                  0.6814964       -97.46353
2.128                  0.6757662       -98.25527
2.132                  0.6699715       -99.05576
2.136                  0.6641133       -99.86516
2.14                   0.6581928       -100.6837
2.144                  0.6522115       -101.5114
2.148                  0.6461708       -102.3487
2.152                  0.6400718       -103.1956
2.156                  0.6339166       -104.0524
2.16                   0.6277063       -104.9194
2.164                  0.6214428       -105.7967
2.168                  0.6151279       -106.6846
2.172                  0.6087635       -107.5834
2.176                  0.6023513       -108.4933
2.18                   0.5958936       -109.4147
2.184                  0.5893923       -110.3478
2.188                  0.5828497       -111.2929
2.192                   0.576268       -112.2504
2.196                  0.5696497       -113.2207
2.2                    0.5629972        -114.204
2.204                   0.556313       -115.2008
2.208                  0.5495999       -116.2115
2.212                  0.5428606       -117.2365
2.216                  0.5360979       -118.2762
2.22                   0.5293149       -119.3312
2.224                  0.5225147       -120.4018
2.228                  0.5157004       -121.4885
2.232                  0.5088755        -122.592
2.236                  0.5020433       -123.7127
2.24                   0.4952074       -124.8512
2.244                  0.4883716       -126.0082
2.248                  0.4815397       -127.1841
2.252                  0.4747158       -128.3798
2.256                  0.4679038       -129.5958
2.26                   0.4611082       -130.8328
2.264                  0.4543334       -132.0916
2.268                  0.4475839       -133.3729
2.272                  0.4408646       -134.6775
2.276                  0.4341804       -136.0061
2.28                   0.4275364       -137.3597
2.284                  0.4209381       -138.7389
2.288                  0.4143907       -140.1446
2.292                  0.4079001       -141.5779
2.296                  0.4014721       -143.0394
2.3                    0.3951128       -144.5301
2.304                  0.3888285       -146.0508
2.308                  0.3826257       -147.6026
2.312                  0.3765111       -149.1861
2.316                  0.3704916       -150.8024
2.32                   0.3645743       -152.4522
2.324                  0.3587666       -154.1363
2.328                  0.3530758       -155.8554
2.332                  0.3475097       -157.6102
2.336                  0.3420761       -159.4014
2.34                    0.336783       -161.2295
2.344                  0.3316385       -163.0948
2.348                  0.3266508       -164.9977
2.352                  0.3218281       -166.9382