! TOUCHSTONE file generated by CST MICROWAVE STUDIO
! Date and time: Sat May 14 10:20:47 2022
! Project name: AppElm_antenne_dipole_Alumina.cst
! Parameters = {L=33; e=0.035; f=2.45e+09; h=1.6; i=0.8; l1=2.4; lambda=122.449; ls=30; wl=1.7; ws=80}
! Header version: 2018
! Port assignment regex: !\s*Touchstone port\s*([0-9]+)\s*=\s*(CST MWS port|CST DS port)\s*([0-9]+|Zmin|Zmax)\s*\(\"(.*)\"\)(\s*mode\s*([0-9]+))?.*
! Touchstone port assignment:
! Touchstone port 1 = CST MWS port 1 ("")
# GHz S MA R 50
0                              1              -0
0.004                  0.9999988     -0.07226329
0.008                  0.9999953      -0.1445204
0.012                  0.9999895      -0.2167653
0.016                  0.9999814      -0.2889918
0.02                   0.9999709      -0.3611938
0.024                  0.9999583      -0.4333655
0.028                  0.9999433      -0.5055009
0.032                  0.9999262      -0.5775943
0.036                  0.9999069        -0.64964
0.04                   0.9998856      -0.7216326
0.044                  0.9998623      -0.7935668
0.048                  0.9998368      -0.8654372
0.052                  0.9998097      -0.9372391
0.056                  0.9997807       -1.008967
0.06                   0.9997499       -1.080618
0.064                  0.9997174       -1.152186
0.068                  0.9996834       -1.223668
0.072                  0.9996478       -1.295061
0.076                  0.9996109        -1.36636
0.08                   0.9995727       -1.437561
0.084                  0.9995333       -1.508664
0.088                  0.9994928       -1.579664
0.092                  0.9994514       -1.650559
0.096                   0.999409       -1.721348
0.1                    0.9993659       -1.792029
0.104                  0.9993223       -1.862601
0.108                   0.999278       -1.933062
0.112                  0.9992335       -2.003413
0.116                  0.9991885       -2.073652
0.12                   0.9991436       -2.143781
0.124                  0.9990986       -2.213799
0.128                  0.9990536       -2.283708
0.132                  0.9990089       -2.353508
0.136                  0.9989645       -2.423202
0.14                   0.9989206       -2.492791
0.144                  0.9988772       -2.562278
0.148                  0.9988346       -2.631664
0.152                  0.9987927       -2.700955
0.156                  0.9987518       -2.770153
0.16                    0.998712        -2.83926
0.164                  0.9986732       -2.908282
0.168                  0.9986357       -2.977224
0.172                  0.9985997       -3.046089
0.176                   0.998565       -3.114882
0.18                   0.9985318        -3.18361
0.184                  0.9985004       -3.252277
0.188                  0.9984707        -3.32089
0.192                  0.9984428       -3.389454
0.196                  0.9984167       -3.457977
0.2                    0.9983926       -3.526463
0.204                  0.9983706       -3.594922
0.208                  0.9983506       -3.663358
0.212                  0.9983327       -3.731781
0.216                  0.9983171       -3.800195
0.22                   0.9983037       -3.868611
0.224                  0.9982926       -3.937035
0.228                  0.9982838       -4.005475
0.232                  0.9982773       -4.073939
0.236                  0.9982732       -4.142433
0.24                   0.9982714       -4.210968
0.244                  0.9982721        -4.27955
0.248                  0.9982751       -4.348189
0.252                  0.9982805        -4.41689
0.256                  0.9982881       -4.485664
0.26                   0.9982982       -4.554518
0.264                  0.9983105       -4.623459
0.268                  0.9983252       -4.692496
0.272                   0.998342       -4.761636
0.276                  0.9983611       -4.830887
0.28                   0.9983823       -4.900256
0.284                  0.9984056       -4.969752
0.288                  0.9984308       -5.039381
0.292                  0.9984581       -5.109149
0.296                  0.9984872       -5.179064
0.3                    0.9985181       -5.249133
0.304                  0.9985508       -5.319361
0.308                   0.998585       -5.389756
0.312                  0.9986209       -5.460322
0.316                  0.9986581       -5.531064
0.32                   0.9986967       -5.601991
0.324                  0.9987365       -5.673104
0.328                  0.9987774       -5.744409
0.332                  0.9988194        -5.81591
0.336                  0.9988622       -5.887613
0.34                   0.9989057       -5.959519
0.344                    0.99895       -6.031632
0.348                  0.9989948       -6.103956
0.352                  0.9990399       -6.176494
0.356                  0.9990853       -6.249246
0.36                    0.999131       -6.322214
0.364                  0.9991766       -6.395402
0.368                   0.999222       -6.468809
0.372                  0.9992673       -6.542437
0.376                  0.9993122       -6.616285
0.38                   0.9993565       -6.690355
0.384                  0.9994003       -6.764643
0.388                  0.9994434       -6.839151
0.392                  0.9994855       -6.913878
0.396                  0.9995268       -6.988823
0.4                    0.9995667       -7.063982
0.404                  0.9996056       -7.139354
0.408                  0.9996429       -7.214936
0.412                   0.999679       -7.290726
0.416                  0.9997133        -7.36672
0.42                   0.9997463       -7.442914
0.424                  0.9997773       -7.519307
0.428                  0.9998064       -7.595892
0.432                  0.9998335       -7.672665
0.436                  0.9998588       -7.749623
0.44                   0.9998816        -7.82676
0.444                  0.9999025       -7.904071
0.448                   0.999921        -7.98155
0.452                  0.9999373       -8.059194
0.456                  0.9999511       -8.136994
0.46                   0.9999625       -8.214947
0.464                  0.9999714       -8.293046
0.468                  0.9999777       -8.371284
0.472                  0.9999814       -8.449657
0.476                  0.9999828       -8.528156
0.48                   0.9999814       -8.606776
0.484                  0.9999773       -8.685512
0.488                  0.9999708       -8.764355
0.492                  0.9999615       -8.843298
0.496                  0.9999496        -8.92234
0.5                    0.9999352       -9.001468
0.504                  0.9999181       -9.080679
0.508                  0.9998985       -9.159967
0.512                  0.9998764       -9.239324
0.516                  0.9998517       -9.318747
0.52                   0.9998247       -9.398226
0.524                  0.9997954       -9.477757
0.528                  0.9997635       -9.557335
0.532                  0.9997296       -9.636955
0.536                  0.9996935        -9.71661
0.54                   0.9996552       -9.796297
0.544                   0.999615       -9.876009
0.548                  0.9995728       -9.955744
0.552                  0.9995288        -10.0355
0.556                   0.999483       -10.11526
0.56                   0.9994357       -10.19504
0.564                  0.9993868       -10.27482
0.568                  0.9993366        -10.3546
0.572                  0.9992851       -10.43439
0.576                  0.9992323       -10.51418
0.58                   0.9991787       -10.59396
0.584                  0.9991239       -10.67374
0.588                  0.9990684       -10.75351
0.592                  0.9990123       -10.83327
0.596                  0.9989558       -10.91303
0.6                    0.9988987       -10.99279
0.604                  0.9988416       -11.07253
0.608                  0.9987843       -11.15227
0.612                   0.998727       -11.23201
0.616                  0.9986698       -11.31174
0.62                    0.998613       -11.39148
0.624                  0.9985567       -11.47122
0.628                  0.9985008       -11.55096
0.632                  0.9984457       -11.63072
0.636                  0.9983916       -11.71048
0.64                   0.9983383       -11.79027
0.644                  0.9982861       -11.87007
0.648                  0.9982352       -11.94991
0.652                  0.9981856       -12.02978
0.656                  0.9981374       -12.10968
0.66                    0.998091       -12.18963
0.664                  0.9980462       -12.26963
0.668                  0.9980032        -12.3497
0.672                  0.9979621       -12.42982
0.676                  0.9979229       -12.51003
0.68                   0.9978859       -12.59031
0.684                   0.997851       -12.67068
0.688                  0.9978185       -12.75116
0.692                  0.9977882       -12.83174
0.696                  0.9977603       -12.91243
0.7                    0.9977348       -12.99326
0.704                  0.9977118       -13.07422
0.708                  0.9976914       -13.15532
0.712                  0.9976736       -13.23658
0.716                  0.9976583         -13.318
0.72                   0.9976456        -13.3996
0.724                  0.9976357       -13.48139
0.728                  0.9976284       -13.56337
0.732                  0.9976237       -13.64555
0.736                  0.9976217       -13.72796
0.74                   0.9976223       -13.81058
0.744                  0.9976255       -13.89345
0.748                  0.9976313       -13.97656
0.752                  0.9976396       -14.05994
0.756                  0.9976504       -14.14358
0.76                   0.9976637       -14.22749
0.764                  0.9976792        -14.3117
0.768                  0.9976971        -14.3962
0.772                  0.9977173       -14.48101
0.776                  0.9977395       -14.56614
0.78                   0.9977637       -14.65159
0.784                  0.9977901       -14.73738
0.788                  0.9978182       -14.82351
0.792                  0.9978479          -14.91
0.796                  0.9978794       -14.99684
0.8                    0.9979123       -15.08405
0.804                  0.9979467       -15.17164
0.808                  0.9979821       -15.25961
0.812                  0.9980188       -15.34798
0.816                  0.9980563       -15.43673
0.82                   0.9980947        -15.5259
0.824                  0.9981337       -15.61546
0.828                  0.9981733       -15.70544
0.832                  0.9982131       -15.79584
0.836                  0.9982532       -15.88667
0.84                   0.9982932       -15.97791
0.844                  0.9983332       -16.06959
0.848                  0.9983728        -16.1617
0.852                  0.9984118       -16.25426
0.856                  0.9984504       -16.34724
0.86                   0.9984881       -16.44067
0.864                  0.9985248       -16.53453
0.868                  0.9985604       -16.62884
0.872                  0.9985946       -16.72359
0.876                  0.9986274       -16.81878
0.88                   0.9986586       -16.91442
0.884                  0.9986879       -17.01049
0.888                  0.9987153       -17.10701
0.892                  0.9987406       -17.20396
0.896                  0.9987636       -17.30134
0.9                    0.9987843       -17.39916
0.904                  0.9988024       -17.49741
0.908                  0.9988179       -17.59609
0.912                  0.9988303       -17.69518
0.916                    0.99884        -17.7947
0.92                   0.9988466       -17.89462
0.924                    0.99885       -17.99496
0.928                  0.9988502        -18.0957
0.932                  0.9988469       -18.19684
0.936                  0.9988402       -18.29837
0.94                   0.9988299       -18.40029
0.944                   0.998816       -18.50258
0.948                  0.9987983       -18.60526
0.952                  0.9987768        -18.7083
0.956                  0.9987515        -18.8117
0.96                   0.9987223       -18.91545
0.964                  0.9986892       -19.01956
0.968                  0.9986521         -19.124
0.972                  0.9986111       -19.22878
0.976                   0.998566       -19.33389
0.98                   0.9985169       -19.43931
0.984                  0.9984639       -19.54505
0.988                  0.9984068       -19.65109
0.992                  0.9983458       -19.75743
0.996                  0.9982809       -19.86407
1                      0.9982121       -19.97099
1.004                  0.9981395       -20.07818
1.008                  0.9980631       -20.18569
1.012                   0.997983       -20.29341
1.016                  0.9978993       -20.40141
1.02                   0.9978119       -20.50965
1.024                   0.997721       -20.61817
1.028                  0.9976269       -20.72691
1.032                  0.9975295       -20.83592
1.036                  0.9974288       -20.94512
1.04                   0.9973253       -21.05457
1.044                  0.9972187       -21.16429
1.048                  0.9971096       -21.27417
1.052                  0.9969975        -21.3843
1.056                  0.9968831        -21.4947
1.06                   0.9967664       -21.60524
1.064                  0.9966475       -21.71605
1.068                  0.9965266       -21.82706
1.072                  0.9964037       -21.93828
1.076                  0.9962792       -22.04978
1.08                   0.9961532       -22.16144
1.084                  0.9960258       -22.27332
1.088                  0.9958973       -22.38544
1.092                  0.9957678       -22.49781
1.096                  0.9956374       -22.61037
1.1                    0.9955064       -22.72318
1.104                  0.9953749       -22.83621
1.108                  0.9952432       -22.94953
1.112                  0.9951114       -23.06308
1.116                  0.9949797       -23.17687
1.12                   0.9948481       -23.29093
1.124                   0.994717       -23.40527
1.128                  0.9945865       -23.51989
1.132                  0.9944567        -23.6348
1.136                  0.9943278       -23.75001
1.14                   0.9942001       -23.86553
1.144                  0.9940735       -23.98137
1.148                  0.9939484       -24.09755
1.152                  0.9938247       -24.21406
1.156                  0.9937028       -24.33094
1.16                   0.9935825       -24.44818
1.164                  0.9934641       -24.56582
1.168                  0.9933479       -24.68385
1.172                  0.9932336       -24.80229
1.176                  0.9931216       -24.92116
1.18                   0.9930118       -25.04048
1.184                  0.9929045       -25.16025
1.188                  0.9927994       -25.28051
1.192                   0.992697       -25.40126
1.196                  0.9925971       -25.52251
1.2                    0.9924998        -25.6443
1.204                   0.992405       -25.76663
1.208                  0.9923128       -25.88953
1.212                  0.9922233       -26.01301
1.216                  0.9921363       -26.13709
1.22                   0.9920519       -26.26179
1.224                    0.99197       -26.38713
1.228                  0.9918907       -26.51312
1.232                  0.9918138       -26.63979
1.236                  0.9917392       -26.76716
1.24                    0.991667       -26.89524
1.244                   0.991597       -27.02405
1.248                   0.991529       -27.15362
1.252                  0.9914631       -27.28395
1.256                  0.9913989       -27.41507
1.26                   0.9913365       -27.54701
1.264                  0.9912757       -27.67976
1.268                  0.9912163       -27.81336
1.272                  0.9911581       -27.94782
1.276                  0.9911007       -28.08316
1.28                   0.9910444        -28.2194
1.284                  0.9909887       -28.35655
1.288                  0.9909334       -28.49463
1.292                  0.9908783       -28.63365
1.296                  0.9908231       -28.77364
1.3                    0.9907677        -28.9146
1.304                  0.9907118       -29.05655
1.308                  0.9906551       -29.19951
1.312                  0.9905973       -29.34349
1.316                  0.9905381        -29.4885
1.32                   0.9904774       -29.63456
1.324                   0.990415       -29.78166
1.328                  0.9903503       -29.92984
1.332                  0.9902831        -30.0791
1.336                  0.9902132       -30.22945
1.34                   0.9901403        -30.3809
1.344                  0.9900639       -30.53345
1.348                   0.989984       -30.68712
1.352                  0.9899001       -30.84192
1.356                  0.9898118       -30.99786
1.36                   0.9897191       -31.15493
1.364                  0.9896216       -31.31314
1.368                  0.9895187       -31.47251
1.372                  0.9894105       -31.63302
1.376                  0.9892965        -31.7947
1.38                   0.9891763       -31.95755
1.384                  0.9890498       -32.12156
1.388                  0.9889167       -32.28673
1.392                  0.9887765       -32.45308
1.396                  0.9886292       -32.62059
1.4                    0.9884744       -32.78928
1.404                  0.9883118       -32.95914
1.408                  0.9881413       -33.13017
1.412                  0.9879623       -33.30239
1.416                  0.9877749       -33.47576
1.42                   0.9875788       -33.65031
1.424                  0.9873736       -33.82602
1.428                  0.9871593        -34.0029
1.432                  0.9869355       -34.18095
1.436                  0.9867022       -34.36016
1.44                   0.9864591       -34.54052
1.444                  0.9862059       -34.72204
1.448                  0.9859427       -34.90472
1.452                  0.9856693       -35.08854
1.456                  0.9853854        -35.2735
1.46                   0.9850909       -35.45961
1.464                  0.9847858       -35.64685
1.468                    0.98447       -35.83524
1.472                  0.9841432       -36.02475
1.476                  0.9838056       -36.21539
1.48                    0.983457       -36.40715
1.484                  0.9830973       -36.60004
1.488                  0.9827266       -36.79404
1.492                  0.9823447       -36.98917
1.496                  0.9819517        -37.1854
1.5                    0.9815476       -37.38276
1.504                  0.9811324       -37.58123
1.508                  0.9807062        -37.7808
1.512                  0.9802688       -37.98149
1.516                  0.9798204       -38.18329
1.52                    0.979361       -38.38621
1.524                  0.9788909       -38.59024
1.528                  0.9784098       -38.79538
1.532                   0.977918       -39.00166
1.536                  0.9774157       -39.20905
1.54                   0.9769029       -39.41758
1.544                  0.9763796       -39.62724
1.548                  0.9758459       -39.83804
1.552                  0.9753023          -40.05
1.556                  0.9747486       -40.26311
1.56                   0.9741849        -40.4774
1.564                  0.9736117       -40.69286
1.568                  0.9730288       -40.90951
1.572                  0.9724364       -41.12738
1.576                  0.9718349       -41.34645
1.58                   0.9712243       -41.56676
1.584                  0.9706046       -41.78832
1.588                  0.9699761       -42.01116
1.592                  0.9693391       -42.23527
1.596                  0.9686936        -42.4607
1.6                    0.9680397       -42.68746
1.604                  0.9673778       -42.91556
1.608                  0.9667078       -43.14506
1.612                    0.96603       -43.37595
1.616                  0.9653443       -43.60827
1.62                   0.9646511       -43.84205
1.624                  0.9639503       -44.07732
1.628                  0.9632422       -44.31411
1.632                  0.9625269       -44.55245
1.636                  0.9618041       -44.79238
1.64                   0.9610746       -45.03393
1.644                  0.9603377       -45.27714
1.648                  0.9595938       -45.52206
1.652                   0.958843        -45.7687
1.656                  0.9580852       -46.01712
1.66                   0.9573205       -46.26737
1.664                  0.9565485       -46.51947
1.668                  0.9557697       -46.77349
1.672                  0.9549838       -47.02945
1.676                  0.9541907       -47.28742
1.68                   0.9533901       -47.54744
1.684                  0.9525823       -47.80954
1.688                  0.9517669        -48.0738
1.692                  0.9509437       -48.34026
1.696                  0.9501127       -48.60896
1.7                    0.9492734       -48.87998
1.704                  0.9484257       -49.15335
1.708                  0.9475693       -49.42914
1.712                   0.946704       -49.70739
1.716                  0.9458292       -49.98818
1.72                   0.9449449       -50.27155
1.724                  0.9440505       -50.55756
1.728                  0.9431456       -50.84627
1.732                  0.9422298       -51.13774
1.736                  0.9413028       -51.43202
1.74                   0.9403637        -51.7292
1.744                  0.9394124        -52.0293
1.748                  0.9384479       -52.33242
1.752                  0.9374699       -52.63859
1.756                  0.9364779       -52.94789
1.76                    0.935471       -53.26037
1.764                  0.9344486       -53.57611
1.768                  0.9334102       -53.89514
1.772                  0.9323548       -54.21756
1.776                  0.9312817        -54.5434
1.78                   0.9301902       -54.87274
1.784                  0.9290795       -55.20564
1.788                  0.9279488       -55.54215
1.792                  0.9267971       -55.88234
1.796                  0.9256237       -56.22626
1.8                    0.9244275       -56.57398
1.804                  0.9232077       -56.92558
1.808                  0.9219632       -57.28109
1.812                  0.9206933       -57.64057
1.816                  0.9193968       -58.00409
1.82                   0.9180728       -58.37171
1.824                    0.91672       -58.74349
1.828                  0.9153378       -59.11946
1.832                  0.9139249       -59.49971
1.836                  0.9124802       -59.88428
1.84                   0.9110025       -60.27323
1.844                  0.9094909       -60.66661
1.848                  0.9079443       -61.06447
1.852                  0.9063614       -61.46688
1.856                  0.9047412       -61.87387
1.86                   0.9030825       -62.28552
1.864                  0.9013842       -62.70186
1.868                   0.899645       -63.12295
1.872                  0.8978639       -63.54882
1.876                  0.8960398       -63.97954
1.88                   0.8941713       -64.41517
1.884                  0.8922575       -64.85572
1.888                  0.8902971       -65.30126
1.892                   0.888289       -65.75184
1.896                  0.8862319       -66.20751
1.9                     0.884125        -66.6683
1.904                  0.8819669       -67.13427
1.908                  0.8797564       -67.60544
1.912                  0.8774926       -68.08187
1.916                  0.8751744       -68.56361
1.92                   0.8728007       -69.05071
1.924                  0.8703703       -69.54319
1.928                  0.8678822       -70.04111
1.932                  0.8653356        -70.5445
1.936                  0.8627292       -71.05342
1.94                   0.8600621       -71.56788
1.944                  0.8573334       -72.08797
1.948                  0.8545421       -72.61369
1.952                  0.8516872       -73.14511
1.956                  0.8487681       -73.68226
1.96                   0.8457837       -74.22519
1.964                  0.8427332       -74.77394
1.968                  0.8396157       -75.32855
1.972                  0.8364308       -75.88907
1.976                  0.8331774       -76.45555
1.98                    0.829855       -77.02801
1.984                  0.8264629       -77.60653
1.988                  0.8230005       -78.19115
1.992                  0.8194671       -78.78192
1.996                  0.8158624       -79.37888
2                      0.8121856       -79.98207
2.004                  0.8084365       -80.59158
2.008                  0.8046146       -81.20743
2.012                  0.8007195       -81.82969
2.016                  0.7967509       -82.45842
2.02                   0.7927087       -83.09369
2.024                  0.7885924       -83.73553
2.028                   0.784402       -84.38403
2.032                  0.7801371       -85.03925
2.036                  0.7757981       -85.70126
2.04                   0.7713848       -86.37013
2.044                  0.7668969       -87.04592
2.048                  0.7623349       -87.72873
2.052                  0.7576989       -88.41864
2.056                  0.7529889       -89.11571
2.06                   0.7482052       -89.82006
2.064                  0.7433483       -90.53176
2.068                  0.7384184       -91.25093
2.072                  0.7334159       -91.97763
2.076                  0.7283417       -92.71201
2.08                   0.7231957       -93.45415
2.084                   0.717979       -94.20416
2.088                  0.7126922       -94.96219
2.092                   0.707336       -95.72833
2.096                  0.7019112       -96.50276
2.1                    0.6964188       -97.28556
2.104                  0.6908595       -98.07691
2.108                  0.6852345       -98.87696
2.112                   0.679545       -99.68586
2.116                  0.6737919       -100.5038
2.12                   0.6679767       -101.3309
2.124                  0.6621006       -102.1673
2.128                  0.6561648       -103.0134
2.132                  0.6501709       -103.8692
2.136                  0.6441205       -104.7349
2.14                   0.6380151       -105.6109
2.144                  0.6318566       -106.4973
2.148                  0.6256464       -107.3943
2.152                  0.6193867       -108.3023
2.156                  0.6130792       -109.2214
2.16                   0.6067259        -110.152
2.164                  0.6003293       -111.0943
2.168                  0.5938912       -112.0487
2.172                   0.587414       -113.0154
2.176                     0.5809       -113.9948
2.18                   0.5743519       -114.9873
2.184                  0.5677721       -115.9931
2.188                  0.5611632       -117.0127
2.192                  0.5545283       -118.0465
2.196                  0.5478699       -119.0949
2.2                    0.5411913       -120.1583
2.204                  0.5344955       -121.2372
2.208                  0.5277855        -122.332
2.212                   0.521065       -123.4432
2.216                  0.5143372       -124.5713
2.22                   0.5076058        -125.717
2.224                  0.5008745       -126.8806
2.228                  0.4941471       -128.0627
2.232                  0.4874276       -129.2641
2.236                  0.4807201       -130.4852
2.24                   0.4740288       -131.7268
2.244                  0.4673583       -132.9894
2.248                  0.4607131       -134.2737
2.252                  0.4540979       -135.5805
2.256                  0.4475176       -136.9104
2.26                   0.4409771       -138.2641
2.264                  0.4344819       -139.6425
2.268                  0.4280372       -141.0462
2.272                  0.4216486        -142.476
2.276                  0.4153219       -143.9326
2.28                   0.4090631       -145.4169
2.284                  0.4028781       -146.9295
2.288                  0.3967734       -148.4713
2.292                  0.3907554        -150.043
2.296                  0.3848308       -151.6453
2.3                    0.3790063       -153.2788
2.304                  0.3732889       -154.9443
2.308                  0.3676859       -156.6423
2.312                  0.3622045       -158.3734
2.316                  0.3568521        -160.138
2.32                   0.3516362       -161.9365
2.324                  0.3465645       -163.7692
2.328                  0.3416447       -165.6363
2.332                  0.3368843       -167.5378
2.336                  0.3322914       -169.4736
2.34                   0.3278733       -171.4435
2.344                  0.3236379        -173.447
2.348                  0.3195926       -175.4835
2.352                  0.3157446       -177.5522