! TOUCHSTONE file generated by CST MICROWAVE STUDIO
! Date and time: Sat May 14 10:20:40 2022
! Project name: AppElm_antenne_dipole_Alumina.cst
! Parameters = {L=33; e=0.035; f=2.45e+09; h=1.6; i=0.8; l1=1.7; lambda=122.449; ls=30; wl=1.7; ws=80}
! Header version: 2018
! Port assignment regex: !\s*Touchstone port\s*([0-9]+)\s*=\s*(CST MWS port|CST DS port)\s*([0-9]+|Zmin|Zmax)\s*\(\"(.*)\"\)(\s*mode\s*([0-9]+))?.*
! Touchstone port assignment:
! Touchstone port 1 = CST MWS port 1 ("")
# GHz S MA R 50
0                              1              -0
0.004                  0.9999985     -0.06728222
0.008                  0.9999943      -0.1345572
0.012                  0.9999875      -0.2018176
0.016                  0.9999778      -0.2690563
0.02                   0.9999655      -0.3362662
0.024                  0.9999505      -0.4034401
0.028                  0.9999327      -0.4705712
0.032                  0.9999125      -0.5376524
0.036                  0.9998896      -0.6046772
0.04                   0.9998643       -0.671639
0.044                  0.9998366      -0.7385314
0.048                  0.9998064      -0.8053481
0.052                   0.999774      -0.8720832
0.056                  0.9997394      -0.9387308
0.06                   0.9997027       -1.005286
0.064                  0.9996641       -1.071742
0.068                  0.9996233       -1.138096
0.072                   0.999581       -1.204341
0.076                  0.9995366       -1.270474
0.08                   0.9994909       -1.336491
0.084                  0.9994436       -1.402388
0.088                   0.999395       -1.468161
0.092                  0.9993451       -1.533807
0.096                   0.999294       -1.599324
0.1                    0.9992421       -1.664709
0.104                  0.9991893       -1.729961
0.108                  0.9991357       -1.795076
0.112                  0.9990815       -1.860056
0.116                   0.999027       -1.924897
0.12                    0.998972       -1.989601
0.124                  0.9989169       -2.054167
0.128                  0.9988617       -2.118596
0.132                  0.9988067       -2.182887
0.136                   0.998752       -2.247043
0.14                   0.9986976       -2.311064
0.144                  0.9986438       -2.374955
0.148                  0.9985905       -2.438715
0.152                  0.9985381       -2.502348
0.156                  0.9984867       -2.565858
0.16                   0.9984364       -2.629247
0.164                  0.9983871       -2.692521
0.168                  0.9983393       -2.755682
0.172                  0.9982928       -2.818736
0.176                  0.9982479       -2.881689
0.18                   0.9982046       -2.944544
0.184                  0.9981632       -3.007308
0.188                  0.9981238       -3.069988
0.192                  0.9980861       -3.132588
0.196                  0.9980508       -3.195117
0.2                    0.9980175       -3.257581
0.204                  0.9979865       -3.319986
0.208                  0.9979578       -3.382341
0.212                  0.9979317       -3.444653
0.216                  0.9979078       -3.506931
0.22                   0.9978867       -3.569181
0.224                  0.9978681       -3.631413
0.228                  0.9978522       -3.693634
0.232                   0.997839       -3.755854
0.236                  0.9978285       -3.818081
0.24                   0.9978208       -3.880323
0.244                  0.9978158        -3.94259
0.248                  0.9978137        -4.00489
0.252                  0.9978144       -4.067233
0.256                  0.9978178       -4.129627
0.26                   0.9978241       -4.192082
0.264                  0.9978332       -4.254606
0.268                  0.9978451       -4.317208
0.272                  0.9978595       -4.379898
0.276                  0.9978768       -4.442683
0.28                   0.9978967       -4.505573
0.284                  0.9979193       -4.568575
0.288                  0.9979443         -4.6317
0.292                  0.9979718       -4.694953
0.296                  0.9980019       -4.758343
0.3                    0.9980342        -4.82188
0.304                  0.9980688        -4.88557
0.308                  0.9981055        -4.94942
0.312                  0.9981443       -5.013438
0.316                  0.9981851       -5.077631
0.32                   0.9982278       -5.142002
0.324                  0.9982722       -5.206563
0.328                  0.9983183       -5.271316
0.332                  0.9983659       -5.336268
0.336                   0.998415       -5.401423
0.34                   0.9984653       -5.466789
0.344                  0.9985169       -5.532367
0.348                  0.9985694       -5.598163
0.352                  0.9986228       -5.664181
0.356                  0.9986769       -5.730424
0.36                   0.9987317       -5.796894
0.364                  0.9987869       -5.863595
0.368                  0.9988424       -5.930529
0.372                  0.9988981       -5.997698
0.376                  0.9989538       -6.065103
0.38                   0.9990096       -6.132744
0.384                  0.9990649       -6.200623
0.388                  0.9991198        -6.26874
0.392                  0.9991743       -6.337094
0.396                  0.9992279       -6.405686
0.4                    0.9992808       -6.474511
0.404                  0.9993326       -6.543572
0.408                  0.9993835       -6.612865
0.412                  0.9994329       -6.682389
0.416                   0.999481       -6.752139
0.42                   0.9995275       -6.822114
0.424                  0.9995726       -6.892309
0.428                  0.9996158       -6.962722
0.432                  0.9996569       -7.033348
0.436                  0.9996962       -7.104182
0.44                   0.9997334       -7.175221
0.444                  0.9997682       -7.246458
0.448                  0.9998007       -7.317889
0.452                   0.999831       -7.389507
0.456                  0.9998586       -7.461307
0.46                   0.9998837       -7.533283
0.464                   0.999906       -7.605429
0.468                  0.9999256       -7.677738
0.472                  0.9999426       -7.750202
0.476                  0.9999565       -7.822816
0.48                   0.9999675       -7.895573
0.484                  0.9999757       -7.968463
0.488                  0.9999809       -8.041481
0.492                  0.9999829        -8.11462
0.496                  0.9999821       -8.187872
0.5                     0.999978       -8.261227
0.504                  0.9999712       -8.334682
0.508                   0.999961       -8.408225
0.512                   0.999948       -8.481852
0.516                  0.9999317       -8.555554
0.52                   0.9999126       -8.629322
0.524                  0.9998904       -8.703151
0.528                  0.9998654       -8.777033
0.532                  0.9998373        -8.85096
0.536                  0.9998065       -8.924925
0.54                    0.999773       -8.998921
0.544                  0.9997368       -9.072943
0.548                  0.9996978       -9.146985
0.552                  0.9996563       -9.221037
0.556                  0.9996123       -9.295096
0.56                    0.999566       -9.369155
0.564                  0.9995175       -9.443208
0.568                  0.9994668       -9.517252
0.572                  0.9994138       -9.591282
0.576                  0.9993591       -9.665289
0.58                   0.9993025       -9.739274
0.584                  0.9992442       -9.813231
0.588                  0.9991843       -9.887156
0.592                   0.999123       -9.961046
0.596                  0.9990603        -10.0349
0.6                    0.9989965       -10.10871
0.604                  0.9989317       -10.18249
0.608                  0.9988661       -10.25622
0.612                  0.9987997        -10.3299
0.616                  0.9987328       -10.40354
0.62                   0.9986655       -10.47714
0.624                  0.9985978       -10.55069
0.628                  0.9985302        -10.6242
0.632                  0.9984625       -10.69766
0.636                  0.9983951       -10.77109
0.64                    0.998328       -10.84447
0.644                  0.9982613       -10.91782
0.648                  0.9981954       -10.99114
0.652                  0.9981302       -11.06443
0.656                  0.9980662       -11.13769
0.66                   0.9980032       -11.21093
0.664                  0.9979414       -11.28415
0.668                  0.9978811       -11.35737
0.672                  0.9978222       -11.43058
0.676                  0.9977651       -11.50379
0.68                   0.9977098         -11.577
0.684                  0.9976563       -11.65024
0.688                   0.997605       -11.72349
0.692                  0.9975558       -11.79677
0.696                  0.9975089        -11.8701
0.7                    0.9974642       -11.94346
0.704                  0.9974222       -12.01689
0.708                  0.9973827       -12.09037
0.712                  0.9973459       -12.16393
0.716                  0.9973117       -12.23758
0.72                   0.9972804       -12.31131
0.724                  0.9972519       -12.38515
0.728                  0.9972263        -12.4591
0.732                  0.9972037       -12.53318
0.736                  0.9971841       -12.60739
0.74                   0.9971676       -12.68174
0.744                  0.9971541       -12.75626
0.748                  0.9971436       -12.83093
0.752                  0.9971363       -12.90579
0.756                   0.997132       -12.98084
0.76                   0.9971307       -13.05608
0.764                  0.9971327       -13.13154
0.768                  0.9971376       -13.20722
0.772                  0.9971454       -13.28314
0.776                  0.9971563        -13.3593
0.78                     0.99717       -13.43571
0.784                  0.9971865       -13.51239
0.788                  0.9972058       -13.58936
0.792                  0.9972279        -13.6666
0.796                  0.9972524       -13.74415
0.8                    0.9972797         -13.822
0.804                  0.9973092       -13.90017
0.808                  0.9973411       -13.97867
0.812                  0.9973751       -14.05751
0.816                  0.9974111       -14.13669
0.82                   0.9974493       -14.21623
0.824                  0.9974892       -14.29613
0.828                  0.9975308       -14.37641
0.832                  0.9975739       -14.45706
0.836                  0.9976184       -14.53809
0.84                   0.9976642       -14.61952
0.844                  0.9977109       -14.70136
0.848                  0.9977587       -14.78359
0.852                   0.997807       -14.86624
0.856                   0.997856        -14.9493
0.86                   0.9979055       -15.03278
0.864                  0.9979552       -15.11669
0.868                  0.9980048       -15.20103
0.872                  0.9980544        -15.2858
0.876                  0.9981035       -15.37101
0.88                   0.9981523       -15.45665
0.884                  0.9982002       -15.54273
0.888                  0.9982473       -15.62926
0.892                  0.9982935       -15.71622
0.896                  0.9983383       -15.80363
0.9                    0.9983817       -15.89148
0.904                  0.9984235       -15.97977
0.908                  0.9984636       -16.06849
0.912                  0.9985017       -16.15766
0.916                  0.9985377       -16.24727
0.92                   0.9985714        -16.3373
0.924                  0.9986025       -16.42777
0.928                  0.9986312       -16.51866
0.932                  0.9986569       -16.60998
0.936                  0.9986799       -16.70172
0.94                   0.9986997       -16.79387
0.944                  0.9987164       -16.88643
0.948                  0.9987297        -16.9794
0.952                  0.9987396       -17.07277
0.956                  0.9987457       -17.16653
0.96                   0.9987483       -17.26067
0.964                  0.9987471        -17.3552
0.968                   0.998742       -17.45009
0.972                  0.9987328       -17.54535
0.976                  0.9987196       -17.64097
0.98                   0.9987022       -17.73695
0.984                  0.9986807       -17.83326
0.988                  0.9986548       -17.92991
0.992                  0.9986247       -18.02689
0.996                  0.9985901       -18.12419
1                      0.9985513       -18.22179
1.004                  0.9985079       -18.31971
1.008                  0.9984603       -18.41791
1.012                  0.9984082       -18.51639
1.016                  0.9983517       -18.61518
1.02                   0.9982908       -18.71422
1.024                  0.9982255        -18.8135
1.028                  0.9981559       -18.91306
1.032                   0.998082       -19.01288
1.036                   0.998004       -19.11291
1.04                   0.9979217       -19.21317
1.044                  0.9978354       -19.31366
1.048                   0.997745       -19.41439
1.052                  0.9976508       -19.51532
1.056                  0.9975529       -19.61643
1.06                   0.9974511       -19.71776
1.064                  0.9973458       -19.81929
1.068                  0.9972369         -19.921
1.072                  0.9971249       -20.02285
1.076                  0.9970095       -20.12495
1.08                   0.9968912       -20.22718
1.084                  0.9967699       -20.32958
1.088                  0.9966459       -20.43217
1.092                  0.9965192       -20.53492
1.096                  0.9963902       -20.63779
1.1                     0.996259       -20.74087
1.104                  0.9961256       -20.84409
1.108                  0.9959904       -20.94747
1.112                  0.9958535       -21.05101
1.116                  0.9957151       -21.15472
1.12                   0.9955753       -21.25857
1.124                  0.9954345       -21.36261
1.128                  0.9952925       -21.46681
1.132                  0.9951498       -21.57119
1.136                  0.9950067       -21.67573
1.14                   0.9948632       -21.78045
1.144                  0.9947195       -21.88535
1.148                  0.9945758       -21.99045
1.152                  0.9944323       -22.09574
1.156                  0.9942893       -22.20123
1.16                   0.9941469       -22.30694
1.164                  0.9940051       -22.41286
1.168                  0.9938644       -22.51902
1.172                  0.9937246       -22.62542
1.176                  0.9935863       -22.73206
1.18                   0.9934495       -22.83896
1.184                  0.9933142       -22.94614
1.188                  0.9931807        -23.0536
1.192                  0.9930492       -23.16136
1.196                  0.9929196       -23.26943
1.2                    0.9927922       -23.37782
1.204                  0.9926671       -23.48655
1.208                  0.9925445       -23.59563
1.212                  0.9924244       -23.70508
1.216                  0.9923067       -23.81492
1.22                    0.992192       -23.92515
1.224                  0.9920798       -24.03581
1.228                  0.9919705        -24.1469
1.232                  0.9918642       -24.25844
1.236                  0.9917608       -24.37044
1.24                   0.9916603       -24.48294
1.244                  0.9915628       -24.59594
1.248                  0.9914684       -24.70946
1.252                  0.9913768       -24.82352
1.256                  0.9912882       -24.93815
1.26                   0.9912026       -25.05335
1.264                    0.99112       -25.16916
1.268                    0.99104       -25.28558
1.272                  0.9909631       -25.40263
1.276                  0.9908886       -25.52035
1.28                   0.9908168       -25.63874
1.284                  0.9907477       -25.75782
1.288                  0.9906807       -25.87761
1.292                  0.9906162       -25.99813
1.296                  0.9905538       -26.11941
1.3                    0.9904934       -26.24145
1.304                  0.9904348       -26.36428
1.308                  0.9903778       -26.48792
1.312                  0.9903223       -26.61238
1.316                  0.9902681       -26.73767
1.32                   0.9902149       -26.86382
1.324                  0.9901628       -26.99084
1.328                  0.9901111       -27.11876
1.332                  0.9900599       -27.24758
1.336                  0.9900087       -27.37732
1.34                   0.9899576       -27.50799
1.344                   0.989906       -27.63961
1.348                  0.9898539       -27.77219
1.352                  0.9898008       -27.90575
1.356                  0.9897467        -28.0403
1.36                    0.989691       -28.17585
1.364                  0.9896335       -28.31241
1.368                  0.9895741       -28.44999
1.372                  0.9895123       -28.58861
1.376                  0.9894477       -28.72827
1.38                   0.9893803       -28.86898
1.384                  0.9893095       -29.01075
1.388                  0.9892352        -29.1536
1.392                  0.9891571       -29.29751
1.396                  0.9890745       -29.44251
1.4                    0.9889876       -29.58859
1.404                  0.9888956       -29.73577
1.408                  0.9887987       -29.88404
1.412                  0.9886961       -30.03342
1.416                  0.9885878       -30.18389
1.42                   0.9884735       -30.33548
1.424                  0.9883527       -30.48817
1.428                  0.9882252       -30.64197
1.432                  0.9880906       -30.79689
1.436                  0.9879489       -30.95292
1.44                   0.9877996       -31.11006
1.444                  0.9876425        -31.2683
1.448                  0.9874772       -31.42766
1.452                  0.9873034       -31.58812
1.456                  0.9871212       -31.74969
1.46                     0.98693       -31.91236
1.464                  0.9867297       -32.07613
1.468                  0.9865201         -32.241
1.472                  0.9863009       -32.40696
1.476                  0.9860721         -32.574
1.48                   0.9858332       -32.74213
1.484                  0.9855842       -32.91134
1.488                  0.9853249       -33.08162
1.492                  0.9850551       -33.25297
1.496                  0.9847746       -33.42539
1.5                    0.9844835       -33.59886
1.504                  0.9841812       -33.77339
1.508                  0.9838681       -33.94897
1.512                   0.983544       -34.12559
1.516                  0.9832086       -34.30324
1.52                   0.9828619       -34.48194
1.524                  0.9825039       -34.66166
1.528                  0.9821345        -34.8424
1.532                  0.9817539       -35.02416
1.536                  0.9813617       -35.20693
1.54                    0.980958       -35.39072
1.544                  0.9805429       -35.57551
1.548                  0.9801163       -35.76131
1.552                  0.9796783       -35.94811
1.556                   0.979229        -36.1359
1.56                   0.9787683        -36.3247
1.564                  0.9782965        -36.5145
1.568                  0.9778134       -36.70528
1.572                  0.9773192       -36.89707
1.576                  0.9768141       -37.08985
1.58                    0.976298       -37.28364
1.584                   0.975771       -37.47843
1.588                  0.9752335       -37.67422
1.592                  0.9746853       -37.87102
1.596                  0.9741267       -38.06883
1.6                    0.9735579       -38.26767
1.604                  0.9729789       -38.46754
1.608                  0.9723899       -38.66844
1.612                  0.9717911       -38.87039
1.616                  0.9711827        -39.0734
1.62                   0.9705648       -39.27747
1.624                  0.9699376       -39.48263
1.628                  0.9693012       -39.68887
1.632                  0.9686557       -39.89623
1.636                  0.9680015       -40.10472
1.64                   0.9673386       -40.31435
1.644                  0.9666672       -40.52513
1.648                  0.9659875        -40.7371
1.652                  0.9652997       -40.95027
1.656                  0.9646037       -41.16467
1.66                   0.9638999       -41.38032
1.664                  0.9631885       -41.59724
1.668                  0.9624693       -41.81546
1.672                  0.9617427       -42.03501
1.676                  0.9610088       -42.25591
1.68                   0.9602677       -42.47821
1.684                  0.9595194       -42.70193
1.688                   0.958764       -42.92709
1.692                  0.9580016       -43.15374
1.696                  0.9572322       -43.38192
1.7                     0.956456       -43.61166
1.704                  0.9556728       -43.84299
1.708                  0.9548827       -44.07597
1.712                  0.9540858       -44.31061
1.716                   0.953282       -44.54698
1.72                    0.952471       -44.78512
1.724                  0.9516531       -45.02505
1.728                   0.950828       -45.26684
1.732                  0.9499956       -45.51053
1.736                  0.9491559       -45.75616
1.74                   0.9483087       -46.00378
1.744                  0.9474535       -46.25345
1.748                  0.9465905       -46.50521
1.752                  0.9457194        -46.7591
1.756                  0.9448396        -47.0152
1.76                   0.9439514       -47.27354
1.764                  0.9430539       -47.53419
1.768                  0.9421471       -47.79718
1.772                  0.9412306       -48.06258
1.776                  0.9403039       -48.33045
1.78                   0.9393666       -48.60085
1.784                  0.9384184       -48.87381
1.788                  0.9374587       -49.14939
1.792                   0.936487       -49.42768
1.796                  0.9355028        -49.7087
1.8                    0.9345054       -49.99254
1.804                  0.9334944       -50.27923
1.808                  0.9324692       -50.56883
1.812                   0.931429       -50.86141
1.816                  0.9303733       -51.15702
1.82                   0.9293011       -51.45573
1.824                  0.9282121       -51.75757
1.828                  0.9271052       -52.06263
1.832                  0.9259798       -52.37095
1.836                   0.924835       -52.68258
1.84                   0.9236701       -52.99759
1.844                  0.9224841       -53.31604
1.848                  0.9212763       -53.63798
1.852                  0.9200457       -53.96345
1.856                  0.9187914       -54.29252
1.86                   0.9175125       -54.62525
1.864                  0.9162078       -54.96169
1.868                  0.9148767       -55.30189
1.872                  0.9135179        -55.6459
1.876                  0.9121306       -55.99379
1.88                   0.9107136       -56.34558
1.884                  0.9092659       -56.70135
1.888                  0.9077867       -57.06114
1.892                  0.9062743       -57.42501
1.896                  0.9047282         -57.793
1.9                    0.9031472       -58.16514
1.904                  0.9015299        -58.5415
1.908                  0.8998755       -58.92214
1.912                  0.8981828       -59.30706
1.916                  0.8964505       -59.69635
1.92                   0.8946776       -60.09004
1.924                  0.8928631       -60.48816
1.928                  0.8910056       -60.89079
1.932                  0.8891041       -61.29792
1.936                  0.8871574       -61.70964
1.94                   0.8851645       -62.12596
1.944                  0.8831241       -62.54692
1.948                  0.8810351        -62.9726
1.952                  0.8788965       -63.40299
1.956                  0.8767071       -63.83815
1.96                   0.8744658       -64.27811
1.964                  0.8721714       -64.72294
1.968                   0.869823       -65.17262
1.972                  0.8674193       -65.62724
1.976                  0.8649594       -66.08679
1.98                   0.8624423       -66.55135
1.984                  0.8598669       -67.02091
1.988                  0.8572321       -67.49556
1.992                  0.8545371       -67.97528
1.996                  0.8517808       -68.46016
2                      0.8489622       -68.95018
2.004                  0.8460806       -69.44541
2.008                  0.8431349       -69.94587
2.012                  0.8401242       -70.45159
2.016                   0.837048       -70.96263
2.02                    0.833905         -71.479
2.024                  0.8306948       -72.00075
2.028                  0.8274164        -72.5279
2.032                  0.8240691       -73.06051
2.036                  0.8206524        -73.5986
2.04                   0.8171655       -74.14222
2.044                  0.8136079       -74.69141
2.048                  0.8099787        -75.2462
2.052                  0.8062776       -75.80662
2.056                  0.8025041       -76.37275
2.06                   0.7986577       -76.94459
2.064                  0.7947379       -77.52222
2.068                  0.7907444       -78.10565
2.072                  0.7866767       -78.69496
2.076                  0.7825347        -79.2902
2.08                   0.7783181       -79.89139
2.084                  0.7740266        -80.4986
2.088                  0.7696601       -81.11191
2.092                  0.7652183       -81.73135
2.096                  0.7607013       -82.35698
2.1                    0.7561092       -82.98888
2.104                  0.7514417        -83.6271
2.108                  0.7466991       -84.27173
2.112                  0.7418814       -84.92281
2.116                   0.736989       -85.58044
2.12                   0.7320218        -86.2447
2.124                  0.7269803       -86.91566
2.128                  0.7218649       -87.59341
2.132                  0.7166757       -88.27807
2.136                  0.7114134        -88.9697
2.14                   0.7060785       -89.66841
2.144                  0.7006713       -90.37431
2.148                  0.6951926       -91.08752
2.152                  0.6896432       -91.80816
2.156                  0.6840236       -92.53634
2.16                   0.6783347        -93.2722
2.164                  0.6725774       -94.01587
2.168                  0.6667525       -94.76749
2.172                   0.660861       -95.52721
2.176                   0.654904       -96.29521
2.18                   0.6488825       -97.07166
2.184                  0.6427978       -97.85672
2.188                  0.6366511       -98.65056
2.192                  0.6304437       -99.45342
2.196                  0.6241769       -100.2655
2.2                    0.6178523        -101.087
2.204                  0.6114711       -101.9181
2.208                  0.6050353       -102.7591
2.212                  0.5985462       -103.6103
2.216                  0.5920057       -104.4719
2.22                   0.5854156       -105.3442
2.224                  0.5787778       -106.2275
2.228                  0.5720943       -107.1221
2.232                  0.5653669       -108.0283
2.236                  0.5585982       -108.9466
2.24                   0.5517899       -109.8772
2.244                  0.5449447       -110.8205
2.248                  0.5380648        -111.777
2.252                  0.5311529       -112.7471
2.256                  0.5242113       -113.7312
2.26                   0.5172429       -114.7298
2.264                  0.5102505       -115.7434
2.268                   0.503237       -116.7725
2.272                  0.4962053       -117.8178
2.276                  0.4891587       -118.8797
2.28                   0.4821005       -119.9589
2.284                  0.4750341        -121.056
2.288                  0.4679627       -122.1717
2.292                  0.4608904       -123.3068
2.296                  0.4538208       -124.4619
2.3                    0.4467578       -125.6379
2.304                  0.4397057       -126.8356
2.308                  0.4326687       -128.0558
2.312                  0.4256512       -129.2994
2.316                  0.4186581       -130.5674
2.32                   0.4116939       -131.8608
2.324                  0.4047639       -133.1806
2.328                  0.3978733       -134.5277
2.332                  0.3910274       -135.9035
2.336                  0.3842321       -137.3089
2.34                   0.3774934       -138.7452
2.344                  0.3708172       -140.2135
2.348                  0.3642102       -141.7151
2.352                  0.3576791       -143.2514