! TOUCHSTONE file generated by CST MICROWAVE STUDIO
! Date and time: Sat May 14 10:20:41 2022
! Project name: AppElm_antenne_dipole_Alumina.cst
! Parameters = {L=33; e=0.035; f=2.45e+09; h=1.6; i=0.8; l1=1.8; lambda=122.449; ls=30; wl=1.7; ws=80}
! Header version: 2018
! Port assignment regex: !\s*Touchstone port\s*([0-9]+)\s*=\s*(CST MWS port|CST DS port)\s*([0-9]+|Zmin|Zmax)\s*\(\"(.*)\"\)(\s*mode\s*([0-9]+))?.*
! Touchstone port assignment:
! Touchstone port 1 = CST MWS port 1 ("")
# GHz S MA R 50
0                              1              -0
0.004                  0.9999985     -0.06813675
0.008                  0.9999944      -0.1362661
0.012                  0.9999873      -0.2043806
0.016                  0.9999775      -0.2724729
0.02                    0.999965      -0.3405357
0.024                  0.9999496      -0.4085618
0.028                  0.9999316       -0.476544
0.032                   0.999911      -0.5444754
0.036                  0.9998878      -0.6123492
0.04                    0.999862      -0.6801586
0.044                  0.9998337      -0.7478969
0.048                  0.9998031      -0.8155581
0.052                  0.9997701      -0.8831359
0.056                  0.9997349      -0.9506244
0.06                   0.9996976       -1.018018
0.064                  0.9996582       -1.085312
0.068                  0.9996168         -1.1525
0.072                  0.9995737       -1.219578
0.076                  0.9995288       -1.286541
0.08                   0.9994821       -1.353386
0.084                  0.9994342       -1.420107
0.088                  0.9993847       -1.486703
0.092                   0.999334        -1.55317
0.096                  0.9992822       -1.619504
0.1                    0.9992294       -1.685704
0.104                  0.9991758       -1.751768
0.108                  0.9991213       -1.817694
0.112                  0.9990664        -1.88348
0.116                  0.9990111       -1.949126
0.12                   0.9989552       -2.014632
0.124                  0.9988995       -2.079998
0.128                  0.9988435       -2.145224
0.132                  0.9987878        -2.21031
0.136                  0.9987323       -2.275259
0.14                   0.9986772       -2.340071
0.144                  0.9986227       -2.404749
0.148                  0.9985688       -2.469295
0.152                  0.9985159       -2.533713
0.156                  0.9984637       -2.598005
0.16                   0.9984129       -2.662176
0.164                  0.9983632       -2.726229
0.168                  0.9983148       -2.790168
0.172                   0.998268          -2.854
0.176                  0.9982227       -2.917727
0.18                   0.9981792       -2.981358
0.184                  0.9981375       -3.044897
0.188                  0.9980978        -3.10835
0.192                  0.9980601       -3.171724
0.196                  0.9980246       -3.235026
0.2                    0.9979912       -3.298263
0.204                  0.9979603       -3.361442
0.208                  0.9979316       -3.424572
0.212                  0.9979055       -3.487659
0.216                  0.9978819       -3.550713
0.22                   0.9978611        -3.61374
0.224                  0.9978427        -3.67675
0.228                  0.9978272       -3.739751
0.232                  0.9978144       -3.802753
0.236                  0.9978044       -3.865763
0.24                   0.9977971       -3.928792
0.244                  0.9977928       -3.991847
0.248                  0.9977913       -4.054938
0.252                  0.9977926       -4.118075
0.256                  0.9977969       -4.181265
0.26                   0.9978039        -4.24452
0.264                  0.9978138       -4.307847
0.268                  0.9978264       -4.371256
0.272                  0.9978419       -4.434755
0.276                  0.9978601       -4.498355
0.28                    0.997881       -4.562062
0.284                  0.9979046       -4.625887
0.288                  0.9979306       -4.689838
0.292                  0.9979593       -4.753922
0.296                  0.9979902        -4.81815
0.3                    0.9980236       -4.882527
0.304                  0.9980593       -4.947061
0.308                  0.9980973        -5.01176
0.312                  0.9981373       -5.076633
0.316                  0.9981792       -5.141684
0.32                    0.998223       -5.206922
0.324                  0.9982687       -5.272351
0.328                  0.9983159        -5.33798
0.332                  0.9983647       -5.403811
0.336                  0.9984148       -5.469852
0.34                   0.9984662       -5.536106
0.344                  0.9985188        -5.60258
0.348                  0.9985723       -5.669276
0.352                  0.9986267       -5.736199
0.356                  0.9986819       -5.803352
0.36                   0.9987376       -5.870737
0.364                  0.9987937       -5.938357
0.368                    0.99885       -6.006216
0.372                  0.9989067       -6.074312
0.376                  0.9989631       -6.142649
0.38                   0.9990195       -6.211228
0.384                  0.9990755       -6.280048
0.388                   0.999131        -6.34911
0.392                  0.9991859       -6.418414
0.396                  0.9992402       -6.487957
0.4                    0.9992933        -6.55774
0.404                  0.9993454       -6.627761
0.408                  0.9993965       -6.698016
0.412                  0.9994463       -6.768504
0.416                  0.9994945       -6.839223
0.42                    0.999541       -6.910168
0.424                  0.9995859       -6.981337
0.428                  0.9996289       -7.052724
0.432                    0.99967       -7.124326
0.436                  0.9997089       -7.196139
0.44                   0.9997456       -7.268157
0.444                    0.99978       -7.340374
0.448                  0.9998121       -7.412786
0.452                  0.9998417       -7.485386
0.456                  0.9998686       -7.558168
0.46                   0.9998929       -7.631127
0.464                  0.9999145       -7.704255
0.468                  0.9999331       -7.777547
0.472                   0.999949       -7.850992
0.476                  0.9999619       -7.924586
0.48                    0.999972       -7.998322
0.484                  0.9999788        -8.07219
0.488                  0.9999826       -8.146186
0.492                  0.9999834       -8.220301
0.496                   0.999981       -8.294527
0.5                    0.9999756       -8.368854
0.504                  0.9999671       -8.443278
0.508                  0.9999556       -8.517789
0.512                  0.9999408       -8.592382
0.516                   0.999923       -8.667045
0.52                   0.9999023       -8.741773
0.524                  0.9998782       -8.816558
0.528                  0.9998515       -8.891394
0.532                  0.9998218       -8.966272
0.536                  0.9997892       -9.041186
0.54                   0.9997538       -9.116127
0.544                  0.9997157       -9.191092
0.548                   0.999675        -9.26607
0.552                  0.9996318       -9.341059
0.556                  0.9995861       -9.416049
0.56                    0.999538       -9.491037
0.564                  0.9994875       -9.566018
0.568                  0.9994351       -9.640984
0.572                  0.9993804       -9.715933
0.576                  0.9993239       -9.790858
0.58                   0.9992657       -9.865757
0.584                  0.9992058       -9.940625
0.588                  0.9991444       -10.01546
0.592                  0.9990816       -10.09026
0.596                  0.9990175       -10.16501
0.6                    0.9989524       -10.23973
0.604                  0.9988863        -10.3144
0.608                  0.9988195       -10.38903
0.612                   0.998752       -10.46361
0.616                  0.9986839       -10.53815
0.62                   0.9986155       -10.61264
0.624                   0.998547       -10.68709
0.628                  0.9984786       -10.76149
0.632                  0.9984102       -10.83585
0.636                  0.9983422       -10.91017
0.64                   0.9982745       -10.98445
0.644                  0.9982074        -11.0587
0.648                  0.9981413       -11.13291
0.652                  0.9980761        -11.2071
0.656                  0.9980118       -11.28126
0.66                   0.9979488       -11.35541
0.664                  0.9978872       -11.42954
0.668                  0.9978271       -11.50366
0.672                  0.9977687       -11.57779
0.676                  0.9977121       -11.65191
0.68                   0.9976572       -11.72605
0.684                  0.9976045       -11.80021
0.688                   0.997554        -11.8744
0.692                  0.9975058       -11.94862
0.696                  0.9974599       -12.02288
0.7                    0.9974165        -12.0972
0.704                  0.9973758       -12.17158
0.708                  0.9973376       -12.24603
0.712                  0.9973021       -12.32056
0.716                  0.9972696       -12.39518
0.72                   0.9972399        -12.4699
0.724                  0.9972131       -12.54474
0.728                  0.9971894        -12.6197
0.732                  0.9971687       -12.69478
0.736                  0.9971512       -12.77002
0.74                   0.9971367        -12.8454
0.744                  0.9971253       -12.92096
0.748                   0.997117       -12.99669
0.752                  0.9971119       -13.07261
0.756                  0.9971099       -13.14873
0.76                   0.9971111       -13.22506
0.764                  0.9971153       -13.30162
0.768                  0.9971226       -13.37841
0.772                  0.9971329       -13.45544
0.776                  0.9971462       -13.53274
0.78                   0.9971623        -13.6103
0.784                  0.9971814       -13.68814
0.788                   0.997203       -13.76626
0.792                  0.9972275       -13.84469
0.796                  0.9972545       -13.92343
0.8                     0.997284       -14.00249
0.804                  0.9973159       -14.08188
0.808                  0.9973501       -14.16161
0.812                  0.9973863       -14.24169
0.816                  0.9974247       -14.32213
0.82                   0.9974648       -14.40293
0.824                  0.9975068       -14.48411
0.828                  0.9975503       -14.56568
0.832                  0.9975953       -14.64763
0.836                  0.9976416       -14.72998
0.84                   0.9976891       -14.81274
0.844                  0.9977373        -14.8959
0.848                  0.9977865       -14.97949
0.852                  0.9978362       -15.06349
0.856                  0.9978864       -15.14792
0.86                   0.9979369       -15.23279
0.864                  0.9979874       -15.31809
0.868                  0.9980379       -15.40382
0.872                   0.998088          -15.49
0.876                  0.9981377       -15.57662
0.88                   0.9981868       -15.66369
0.884                  0.9982349        -15.7512
0.888                   0.998282       -15.83917
0.892                  0.9983279       -15.92758
0.896                  0.9983725       -16.01644
0.9                    0.9984153       -16.10575
0.904                  0.9984564        -16.1955
0.908                  0.9984957        -16.2857
0.912                  0.9985328       -16.37635
0.916                  0.9985676       -16.46743
0.92                   0.9985997       -16.55895
0.924                  0.9986294       -16.65091
0.928                  0.9986563        -16.7433
0.932                  0.9986803       -16.83611
0.936                  0.9987011       -16.92935
0.94                   0.9987187         -17.023
0.944                   0.998733       -17.11706
0.948                  0.9987437       -17.21153
0.952                  0.9987508        -17.3064
0.956                  0.9987542       -17.40166
0.96                   0.9987536       -17.49731
0.964                  0.9987493       -17.59334
0.968                  0.9987408       -17.68974
0.972                  0.9987282        -17.7865
0.976                  0.9987114       -17.88362
0.98                   0.9986904       -17.98109
0.984                   0.998665        -18.0789
0.988                  0.9986353       -18.17704
0.992                   0.998601       -18.27551
0.996                  0.9985625       -18.37429
1                      0.9985195       -18.47338
1.004                  0.9984719       -18.57277
1.008                  0.9984199       -18.67245
1.012                  0.9983635       -18.77243
1.016                  0.9983026       -18.87265
1.02                   0.9982372       -18.97319
1.024                  0.9981674       -19.07392
1.028                  0.9980934       -19.17493
1.032                  0.9980151       -19.27618
1.036                  0.9979324        -19.3777
1.04                   0.9978458       -19.47942
1.044                  0.9977551       -19.58132
1.048                  0.9976603        -19.6835
1.052                  0.9975617       -19.78587
1.056                  0.9974594       -19.88844
1.06                   0.9973534       -19.99119
1.064                   0.997244       -20.09411
1.068                  0.9971312       -20.19724
1.072                   0.997015       -20.30057
1.076                  0.9968959       -20.40406
1.08                   0.9967737       -20.50769
1.084                  0.9966489       -20.61153
1.088                  0.9965214       -20.71552
1.092                  0.9963914       -20.81972
1.096                  0.9962592         -20.924
1.1                    0.9961249        -21.0285
1.104                  0.9959888       -21.13314
1.108                  0.9958508       -21.23794
1.112                  0.9957114       -21.34294
1.116                  0.9955706       -21.44807
1.12                   0.9954287       -21.55339
1.124                  0.9952859       -21.65885
1.128                  0.9951423        -21.7645
1.132                  0.9949981       -21.87033
1.136                  0.9948536       -21.97633
1.14                   0.9947091       -22.08252
1.144                  0.9945644       -22.18891
1.148                  0.9944202       -22.29549
1.152                  0.9942763       -22.40229
1.156                   0.994133        -22.5093
1.16                   0.9939905       -22.61653
1.164                  0.9938491       -22.72399
1.168                  0.9937088       -22.83171
1.172                  0.9935698       -22.93967
1.176                  0.9934323       -23.04789
1.18                   0.9932965        -23.1564
1.184                  0.9931626       -23.26519
1.188                  0.9930305       -23.37429
1.192                  0.9929007        -23.4837
1.196                   0.992773       -23.59345
1.2                    0.9926477       -23.70354
1.204                  0.9925248       -23.81399
1.208                  0.9924046       -23.92481
1.212                   0.992287       -24.03603
1.216                  0.9921722       -24.14765
1.22                   0.9920602       -24.25971
1.224                  0.9919511        -24.3722
1.228                   0.991845       -24.48515
1.232                   0.991742       -24.59858
1.236                  0.9916418       -24.71251
1.24                   0.9915447       -24.82696
1.244                  0.9914506       -24.94194
1.248                  0.9913598       -25.05746
1.252                  0.9912718       -25.17357
1.256                  0.9911868       -25.29026
1.26                   0.9911048       -25.40756
1.264                  0.9910257        -25.5255
1.268                  0.9909494       -25.64408
1.272                  0.9908759       -25.76334
1.276                   0.990805       -25.88328
1.28                   0.9907367       -26.00392
1.284                  0.9906708        -26.1253
1.288                  0.9906073       -26.24742
1.292                  0.9905459        -26.3703
1.296                  0.9904864       -26.49397
1.3                    0.9904288       -26.61844
1.304                  0.9903728       -26.74373
1.308                  0.9903185       -26.86986
1.312                  0.9902652       -26.99685
1.316                  0.9902132        -27.1247
1.32                   0.9901619       -27.25344
1.324                  0.9901113       -27.38309
1.328                   0.990061       -27.51366
1.332                  0.9900109       -27.64517
1.336                  0.9899606       -27.77763
1.34                   0.9899099       -27.91105
1.344                  0.9898586       -28.04546
1.348                  0.9898063       -28.18086
1.352                  0.9897527       -28.31726
1.356                  0.9896977       -28.45468
1.36                   0.9896407       -28.59313
1.364                  0.9895817       -28.73263
1.368                  0.9895202       -28.87317
1.372                   0.989456       -29.01477
1.376                  0.9893887       -29.15744
1.38                    0.989318       -29.30119
1.384                  0.9892436       -29.44603
1.388                  0.9891651       -29.59195
1.392                  0.9890825       -29.73898
1.396                   0.988995       -29.88711
1.4                    0.9889027       -30.03635
1.404                   0.988805        -30.1867
1.408                  0.9887016       -30.33817
1.412                  0.9885923       -30.49076
1.416                  0.9884769       -30.64448
1.42                   0.9883548       -30.79933
1.424                  0.9882259       -30.95529
1.428                  0.9880899       -31.11238
1.432                  0.9879463        -31.2706
1.436                  0.9877952       -31.42995
1.44                    0.987636       -31.59042
1.444                  0.9874685       -31.75202
1.448                  0.9872925       -31.91474
1.452                  0.9871077       -32.07858
1.456                  0.9869138       -32.24353
1.46                   0.9867107        -32.4096
1.464                   0.986498       -32.57678
1.468                  0.9862758       -32.74507
1.472                  0.9860435       -32.91446
1.476                  0.9858011       -33.08494
1.48                   0.9855485       -33.25651
1.484                  0.9852853       -33.42918
1.488                  0.9850116       -33.60293
1.492                   0.984727       -33.77775
1.496                  0.9844315       -33.95366
1.5                    0.9841251       -34.13062
1.504                  0.9838074       -34.30864
1.508                  0.9834786       -34.48773
1.512                  0.9831383       -34.66786
1.516                  0.9827868       -34.84903
1.52                   0.9824237       -35.03125
1.524                  0.9820492       -35.21451
1.528                  0.9816632        -35.3988
1.532                  0.9812656       -35.58411
1.536                  0.9808565       -35.77045
1.54                   0.9804359       -35.95782
1.544                  0.9800038       -36.14619
1.548                    0.97956       -36.33559
1.552                   0.979105         -36.526
1.556                  0.9786386       -36.71741
1.56                   0.9781607       -36.90984
1.564                  0.9776716       -37.10329
1.568                  0.9771715       -37.29774
1.572                  0.9766603       -37.49321
1.576                  0.9761381        -37.6897
1.58                   0.9756052        -37.8872
1.584                  0.9750617       -38.08572
1.588                  0.9745075       -38.28527
1.592                  0.9739429       -38.48586
1.596                   0.973368       -38.68749
1.6                    0.9727829       -38.89016
1.604                   0.972188        -39.0939
1.608                   0.971583        -39.2987
1.612                  0.9709687       -39.50457
1.616                  0.9703447       -39.71154
1.62                   0.9697117       -39.91961
1.624                  0.9690693        -40.1288
1.628                  0.9684182       -40.33913
1.632                  0.9677583        -40.5506
1.636                  0.9670897       -40.76325
1.64                   0.9664125       -40.97708
1.644                  0.9657273       -41.19213
1.648                  0.9650339       -41.40841
1.652                  0.9643326       -41.62594
1.656                  0.9636234       -41.84475
1.66                   0.9629067       -42.06488
1.664                  0.9621823       -42.28634
1.668                  0.9614504       -42.50916
1.672                  0.9607114       -42.73339
1.676                  0.9599651       -42.95903
1.68                   0.9592117       -43.18613
1.684                  0.9584513       -43.41474
1.688                  0.9576839       -43.64486
1.692                  0.9569097       -43.87655
1.696                  0.9561286       -44.10985
1.7                    0.9553404       -44.34479
1.704                  0.9545455       -44.58142
1.708                  0.9537437       -44.81976
1.712                  0.9529349        -45.0599
1.716                  0.9521191       -45.30184
1.72                   0.9512962       -45.54563
1.724                  0.9504662       -45.79133
1.728                  0.9496289       -46.03899
1.732                   0.948784       -46.28865
1.736                  0.9479315       -46.54036
1.74                   0.9470711       -46.79418
1.744                  0.9462027       -47.05014
1.748                   0.945326       -47.30831
1.752                  0.9444408       -47.56874
1.756                  0.9435464       -47.83149
1.76                   0.9426431       -48.09659
1.764                  0.9417299       -48.36413
1.768                  0.9408069       -48.63414
1.772                  0.9398736       -48.90668
1.776                  0.9389292       -49.18182
1.78                   0.9379738        -49.4596
1.784                  0.9370065       -49.74008
1.788                  0.9360268       -50.02333
1.792                  0.9350342       -50.30941
1.796                  0.9340282       -50.59836
1.8                    0.9330082       -50.89024
1.804                  0.9319733       -51.18513
1.808                  0.9309231       -51.48307
1.812                  0.9298569       -51.78413
1.816                  0.9287738       -52.08835
1.82                   0.9276732       -52.39581
1.824                  0.9265543       -52.70656
1.828                  0.9254163       -53.02065
1.832                  0.9242583       -53.33815
1.836                  0.9230795        -53.6591
1.84                    0.921879       -53.98358
1.844                   0.920656       -54.31163
1.848                  0.9194095       -54.64332
1.852                  0.9181386        -54.9787
1.856                  0.9168423        -55.3178
1.86                   0.9155195       -55.66072
1.864                  0.9141695       -56.00749
1.868                  0.9127909       -56.35817
1.872                   0.911383       -56.71279
1.876                  0.9099446       -57.07143
1.88                   0.9084746       -57.43414
1.884                  0.9069721       -57.80095
1.888                  0.9054358       -58.17194
1.892                  0.9038646       -58.54713
1.896                  0.9022576       -58.92658
1.9                    0.9006134       -59.31034
1.904                  0.8989311       -59.69846
1.908                  0.8972094       -60.09097
1.912                  0.8954473       -60.48795
1.916                  0.8936435       -60.88941
1.92                   0.8917971       -61.29541
1.924                  0.8899065         -61.706
1.928                   0.887971       -62.12121
1.932                  0.8859893       -62.54107
1.936                  0.8839602       -62.96566
1.94                   0.8818826       -63.39498
1.944                  0.8797554       -63.82911
1.948                  0.8775776       -64.26805
1.952                  0.8753477       -64.71187
1.956                  0.8730649       -65.16059
1.96                   0.8707281       -65.61424
1.964                  0.8683361       -66.07288
1.968                  0.8658878       -66.53654
1.972                  0.8633823       -67.00526
1.976                  0.8608185       -67.47906
1.98                   0.8581955       -67.95799
1.984                   0.855512       -68.44208
1.988                  0.8527672       -68.93138
1.992                  0.8499603       -69.42592
1.996                  0.8470901       -69.92572
2                      0.8441559       -70.43082
2.004                  0.8411567       -70.94128
2.008                  0.8380917       -71.45711
2.012                  0.8349601       -71.97836
2.016                   0.831761       -72.50506
2.02                   0.8284938       -73.03724
2.024                  0.8251576       -73.57497
2.028                  0.8217519       -74.11824
2.032                  0.8182759       -74.66715
2.036                  0.8147291       -75.22168
2.04                   0.8111107       -75.78191
2.044                  0.8074203       -76.34786
2.048                  0.8036574       -76.91958
2.052                  0.7998215       -77.49712
2.056                  0.7959121       -78.08053
2.06                    0.791929       -78.66985
2.064                  0.7878718       -79.26512
2.068                    0.78374       -79.86641
2.072                  0.7795334       -80.47376
2.076                  0.7752521       -81.08724
2.08                   0.7708955       -81.70688
2.084                  0.7664638       -82.33275
2.088                  0.7619569       -82.96494
2.092                  0.7573747       -83.60348
2.096                  0.7527173       -84.24845
2.1                    0.7479847       -84.89993
2.104                   0.743177       -85.55796
2.108                  0.7382945       -86.22268
2.112                  0.7333375       -86.89411
2.116                  0.7283061       -87.57236
2.12                   0.7232008       -88.25753
2.124                  0.7180219        -88.9497
2.128                  0.7127701       -89.64897
2.132                  0.7074456       -90.35543
2.136                  0.7020492       -91.06923
2.14                   0.6965815       -91.79044
2.144                   0.691043       -92.51921
2.148                  0.6854349       -93.25566
2.152                  0.6797575        -93.9999
2.156                  0.6740119       -94.75211
2.16                   0.6681992       -95.51239
2.164                  0.6623202       -96.28092
2.168                  0.6563762       -97.05787
2.172                   0.650368        -97.8434
2.176                   0.644297        -98.6377
2.18                   0.6381646       -99.44094
2.184                  0.6319718       -100.2533
2.188                  0.6257203       -101.0751
2.192                  0.6194115       -101.9064
2.196                   0.613047       -102.7476
2.2                    0.6066283       -103.5988
2.204                  0.6001572       -104.4603
2.208                  0.5936354       -105.3324
2.212                  0.5870649       -106.2154
2.216                  0.5804475       -107.1095
2.22                   0.5737853       -108.0151
2.224                  0.5670803       -108.9326
2.228                  0.5603348       -109.8622
2.232                  0.5535511       -110.8044
2.236                  0.5467314       -111.7594
2.24                   0.5398785       -112.7279
2.244                  0.5329946         -113.71
2.248                  0.5260825       -114.7065
2.252                  0.5191451       -115.7175
2.256                   0.512185       -116.7438
2.26                   0.5052054       -117.7858
2.264                  0.4982093       -118.8441
2.268                  0.4912001       -119.9192
2.272                  0.4841808       -121.0117
2.276                  0.4771552       -122.1224
2.28                   0.4701267       -123.2518
2.284                  0.4630992       -124.4007
2.288                  0.4560765       -125.5698
2.292                  0.4490628       -126.7599
2.296                   0.442062       -127.9717
2.3                    0.4350788       -129.2062
2.304                  0.4281175       -130.4642
2.308                   0.421183       -131.7466
2.312                  0.4142802       -133.0544
2.316                  0.4074142       -134.3886
2.32                   0.4005902       -135.7501
2.324                  0.3938139       -137.1401
2.328                  0.3870911       -138.5596
2.332                  0.3804277       -140.0098
2.336                    0.37383       -141.4917
2.34                   0.3673044       -143.0066
2.344                  0.3608577       -144.5557
2.348                  0.3544971       -146.1402
2.352                  0.3482295       -147.7612