! TOUCHSTONE file generated by CST MICROWAVE STUDIO
! Date and time: Sat May 14 10:20:39 2022
! Project name: AppElm_antenne_dipole_Alumina.cst
! Parameters = {L=33; e=0.035; f=2.45e+09; h=1.6; i=0.8; l1=1.6; lambda=122.449; ls=30; wl=1.7; ws=80}
! Header version: 2018
! Port assignment regex: !\s*Touchstone port\s*([0-9]+)\s*=\s*(CST MWS port|CST DS port)\s*([0-9]+|Zmin|Zmax)\s*\(\"(.*)\"\)(\s*mode\s*([0-9]+))?.*
! Touchstone port assignment:
! Touchstone port 1 = CST MWS port 1 ("")
# GHz S MA R 50
0                              1              -0
0.004                  0.9999992      -0.0649925
0.008                  0.9999969      -0.1299813
0.012                  0.9999932      -0.1949626
0.016                  0.9999879      -0.2599327
0.02                   0.9999811      -0.3248879
0.024                  0.9999728      -0.3898247
0.028                  0.9999632      -0.4547394
0.032                  0.9999523      -0.5196285
0.036                  0.9999399      -0.5844886
0.04                    0.999926      -0.6493165
0.044                  0.9999109      -0.7141088
0.048                  0.9998946      -0.7788623
0.052                  0.9998769      -0.8435743
0.056                   0.999858      -0.9082417
0.06                   0.9998381      -0.9728616
0.064                  0.9998171       -1.037432
0.068                   0.999795       -1.101949
0.072                  0.9997719       -1.166413
0.076                  0.9997479       -1.230819
0.08                   0.9997231       -1.295167
0.084                  0.9996974       -1.359455
0.088                  0.9996711        -1.42368
0.092                  0.9996441       -1.487842
0.096                  0.9996166        -1.55194
0.1                    0.9995885       -1.615973
0.104                    0.99956        -1.67994
0.108                  0.9995312        -1.74384
0.112                  0.9995019       -1.807673
0.116                  0.9994726        -1.87144
0.12                   0.9994431       -1.935139
0.124                  0.9994135       -1.998773
0.128                  0.9993841       -2.062341
0.132                  0.9993546       -2.125844
0.136                  0.9993254       -2.189284
0.14                   0.9992964       -2.252661
0.144                  0.9992678       -2.315977
0.148                  0.9992396       -2.379235
0.152                  0.9992118       -2.442435
0.156                  0.9991846       -2.505581
0.16                   0.9991581       -2.568674
0.164                  0.9991322       -2.631717
0.168                  0.9991071       -2.694713
0.172                   0.999083       -2.757666
0.176                  0.9990596       -2.820579
0.18                   0.9990372       -2.883454
0.184                  0.9990159       -2.946295
0.188                  0.9989956       -3.009108
0.192                  0.9989765       -3.071894
0.196                  0.9989586       -3.134659
0.2                    0.9989419       -3.197407
0.204                  0.9989265       -3.260141
0.208                  0.9989124       -3.322869
0.212                  0.9988996       -3.385592
0.216                  0.9988883       -3.448316
0.22                   0.9988784       -3.511047
0.224                  0.9988701       -3.573789
0.228                   0.998863       -3.636548
0.232                  0.9988576       -3.699327
0.236                  0.9988536       -3.762134
0.24                   0.9988513       -3.824972
0.244                  0.9988505       -3.887849
0.248                  0.9988511       -3.950767
0.252                  0.9988533       -4.013734
0.256                  0.9988571       -4.076753
0.26                   0.9988624       -4.139831
0.264                  0.9988691       -4.202974
0.268                  0.9988774       -4.266186
0.272                  0.9988872       -4.329473
0.276                  0.9988984       -4.392839
0.28                   0.9989111        -4.45629
0.284                  0.9989252       -4.519831
0.288                  0.9989407       -4.583467
0.292                  0.9989574       -4.647203
0.296                  0.9989754       -4.711042
0.3                    0.9989946       -4.774991
0.304                   0.999015       -4.839054
0.308                  0.9990365       -4.903234
0.312                  0.9990592       -4.967536
0.316                  0.9990827       -5.031965
0.32                   0.9991073       -5.096522
0.324                  0.9991327       -5.161214
0.328                   0.999159       -5.226042
0.332                   0.999186       -5.291011
0.336                  0.9992135       -5.356123
0.34                   0.9992418       -5.421381
0.344                  0.9992705       -5.486788
0.348                  0.9992996       -5.552346
0.352                  0.9993293       -5.618058
0.356                  0.9993591       -5.683926
0.36                   0.9993892       -5.749949
0.364                  0.9994192       -5.816132
0.368                  0.9994494       -5.882476
0.372                  0.9994796       -5.948981
0.376                  0.9995095       -6.015647
0.38                   0.9995393       -6.082476
0.384                  0.9995688       -6.149468
0.388                  0.9995979       -6.216622
0.392                  0.9996264        -6.28394
0.396                  0.9996545       -6.351419
0.4                    0.9996818       -6.419061
0.404                  0.9997085       -6.486864
0.408                  0.9997345       -6.554826
0.412                  0.9997595       -6.622948
0.416                  0.9997836       -6.691226
0.42                   0.9998067        -6.75966
0.424                  0.9998288       -6.828247
0.428                  0.9998496       -6.896986
0.432                  0.9998692       -6.965874
0.436                  0.9998874       -7.034909
0.44                   0.9999045       -7.104088
0.444                  0.9999201       -7.173407
0.448                  0.9999343       -7.242865
0.452                   0.999947       -7.312459
0.456                  0.9999581       -7.382183
0.46                   0.9999677       -7.452037
0.464                  0.9999757       -7.522014
0.468                   0.999982       -7.592114
0.472                  0.9999864       -7.662332
0.476                  0.9999894       -7.732663
0.48                   0.9999905       -7.803104
0.484                  0.9999898       -7.873651
0.488                  0.9999874         -7.9443
0.492                  0.9999833       -8.015048
0.496                  0.9999773       -8.085889
0.5                    0.9999697       -8.156821
0.504                  0.9999601       -8.227838
0.508                  0.9999488       -8.298937
0.512                  0.9999359       -8.370115
0.516                   0.999921       -8.441366
0.52                   0.9999045       -8.512688
0.524                  0.9998863       -8.584076
0.528                  0.9998666       -8.655527
0.532                   0.999845       -8.727036
0.536                   0.999822       -8.798602
0.54                   0.9997973       -8.870219
0.544                  0.9997713       -8.941885
0.548                  0.9997435       -9.013598
0.552                  0.9997146       -9.085353
0.556                  0.9996844       -9.157148
0.56                   0.9996527        -9.22898
0.564                    0.99962       -9.300847
0.568                  0.9995861       -9.372745
0.572                   0.999551       -9.444676
0.576                  0.9995151       -9.516634
0.58                   0.9994781       -9.588621
0.584                  0.9994403        -9.66063
0.588                  0.9994019       -9.732665
0.592                  0.9993626       -9.804725
0.596                  0.9993227       -9.876806
0.6                    0.9992825       -9.948911
0.604                  0.9992417       -10.02104
0.608                  0.9992007       -10.09319
0.612                  0.9991594       -10.16536
0.616                  0.9991179       -10.23756
0.62                   0.9990764       -10.30977
0.624                  0.9990349       -10.38202
0.628                  0.9989935        -10.4543
0.632                  0.9989524        -10.5266
0.636                  0.9989116       -10.59893
0.64                   0.9988712        -10.6713
0.644                  0.9988313        -10.7437
0.648                  0.9987918       -10.81615
0.652                  0.9987532       -10.88863
0.656                  0.9987152       -10.96116
0.66                   0.9986781       -11.03374
0.664                   0.998642       -11.10638
0.668                  0.9986068       -11.17907
0.672                  0.9985726       -11.25183
0.676                  0.9985397       -11.32465
0.68                    0.998508       -11.39754
0.684                  0.9984774       -11.47052
0.688                  0.9984483       -11.54357
0.692                  0.9984207       -11.61671
0.696                  0.9983944       -11.68995
0.7                    0.9983696       -11.76329
0.704                  0.9983464       -11.83674
0.708                   0.998325       -11.91029
0.712                  0.9983051       -11.98397
0.716                  0.9982868       -12.05778
0.72                   0.9982704       -12.13171
0.724                  0.9982558       -12.20579
0.728                  0.9982427       -12.28002
0.732                  0.9982315        -12.3544
0.736                  0.9982222       -12.42894
0.74                   0.9982147       -12.50365
0.744                  0.9982089       -12.57854
0.748                  0.9982048       -12.65361
0.752                  0.9982026       -12.72887
0.756                  0.9982022       -12.80433
0.76                   0.9982036          -12.88
0.764                  0.9982067       -12.95588
0.768                  0.9982114       -13.03198
0.772                  0.9982178       -13.10831
0.776                  0.9982259       -13.18487
0.78                   0.9982355       -13.26168
0.784                  0.9982466       -13.33873
0.788                  0.9982592       -13.41605
0.792                  0.9982734       -13.49362
0.796                  0.9982888       -13.57147
0.8                    0.9983054       -13.64959
0.804                  0.9983233       -13.72799
0.808                  0.9983422       -13.80668
0.812                  0.9983622       -13.88567
0.816                  0.9983832       -13.96496
0.82                    0.998405       -14.04455
0.824                  0.9984276       -14.12445
0.828                  0.9984509       -14.20467
0.832                  0.9984747       -14.28521
0.836                   0.998499       -14.36608
0.84                   0.9985237       -14.44728
0.844                  0.9985486       -14.52881
0.848                  0.9985736       -14.61068
0.852                  0.9985987       -14.69288
0.856                  0.9986237       -14.77544
0.86                   0.9986485       -14.85834
0.864                   0.998673       -14.94159
0.868                   0.998697       -15.02519
0.872                  0.9987205       -15.10914
0.876                  0.9987434       -15.19345
0.88                   0.9987654       -15.27812
0.884                  0.9987866       -15.36314
0.888                  0.9988066       -15.44853
0.892                  0.9988256       -15.53427
0.896                  0.9988432       -15.62037
0.9                    0.9988596       -15.70683
0.904                  0.9988744       -15.79365
0.908                  0.9988875       -15.88082
0.912                  0.9988991       -15.96835
0.916                  0.9989087       -16.05624
0.92                   0.9989165       -16.14448
0.924                  0.9989223       -16.23307
0.928                  0.9989259       -16.32201
0.932                  0.9989273        -16.4113
0.936                  0.9989264       -16.50093
0.94                   0.9989232        -16.5909
0.944                  0.9989173       -16.68121
0.948                  0.9989091       -16.77185
0.952                  0.9988982       -16.86283
0.956                  0.9988845       -16.95413
0.96                   0.9988682       -17.04576
0.964                  0.9988491        -17.1377
0.968                   0.998827       -17.22996
0.972                  0.9988021       -17.32254
0.976                  0.9987742       -17.41542
0.98                   0.9987434        -17.5086
0.984                  0.9987095       -17.60208
0.988                  0.9986725       -17.69585
0.992                  0.9986325       -17.78991
0.996                  0.9985895       -17.88426
1                      0.9985433       -17.97888
1.004                  0.9984942       -18.07378
1.008                  0.9984418       -18.16895
1.012                  0.9983866       -18.26438
1.016                  0.9983283       -18.36008
1.02                   0.9982669       -18.45604
1.024                  0.9982026       -18.55226
1.028                  0.9981353       -18.64867
1.032                  0.9980652       -18.74539
1.036                  0.9979921       -18.84232
1.04                   0.9979164       -18.93947
1.044                  0.9978379        -19.0369
1.048                  0.9977567       -19.13452
1.052                  0.9976729       -19.23238
1.056                  0.9975867       -19.33049
1.06                   0.9974979       -19.42882
1.064                  0.9974069       -19.52731
1.068                  0.9973137       -19.62607
1.072                  0.9972182       -19.72503
1.076                  0.9971207        -19.8242
1.08                   0.9970213        -19.9236
1.084                  0.9969201       -20.02321
1.088                  0.9968171       -20.12298
1.092                  0.9967124       -20.22303
1.096                  0.9966063       -20.32327
1.1                    0.9964989        -20.4237
1.104                  0.9963902       -20.52438
1.108                  0.9962805       -20.62528
1.112                  0.9961697       -20.72639
1.116                  0.9960581       -20.82772
1.12                   0.9959457       -20.92927
1.124                  0.9958326       -21.03107
1.128                   0.995719       -21.13308
1.132                  0.9956053       -21.23533
1.136                  0.9954912       -21.33783
1.14                    0.995377       -21.44057
1.144                  0.9952629       -21.54357
1.148                   0.995149       -21.64683
1.152                  0.9950352       -21.75036
1.156                  0.9949218       -21.85415
1.16                   0.9948092       -21.95823
1.164                  0.9946969        -22.0626
1.168                  0.9945855       -22.16727
1.172                   0.994475       -22.27225
1.176                  0.9943654       -22.37754
1.18                   0.9942569       -22.48316
1.184                  0.9941495       -22.58911
1.188                  0.9940432       -22.69541
1.192                  0.9939384       -22.80208
1.196                  0.9938349       -22.90911
1.2                    0.9937329       -23.01652
1.204                  0.9936324       -23.12432
1.208                  0.9935335       -23.23253
1.212                  0.9934363       -23.34116
1.216                  0.9933407       -23.45022
1.22                   0.9932468       -23.55972
1.224                  0.9931545       -23.66969
1.228                  0.9930641       -23.78012
1.232                  0.9929755       -23.89104
1.236                  0.9928886       -24.00247
1.24                   0.9928036        -24.1144
1.244                  0.9927202       -24.22686
1.248                  0.9926386       -24.33987
1.252                  0.9925588       -24.45344
1.256                  0.9924806       -24.56758
1.26                   0.9924039        -24.6823
1.264                  0.9923288       -24.79763
1.268                  0.9922552       -24.91358
1.272                  0.9921831       -25.03016
1.276                  0.9921123       -25.14739
1.28                   0.9920427       -25.26528
1.284                  0.9919743       -25.38385
1.288                  0.9919069       -25.50311
1.292                  0.9918404       -25.62308
1.296                  0.9917747       -25.74376
1.3                    0.9917096       -25.86518
1.304                   0.991645       -25.98735
1.308                  0.9915808       -26.11029
1.312                  0.9915168         -26.234
1.316                  0.9914528        -26.3585
1.32                   0.9913887        -26.4838
1.324                  0.9913241       -26.60992
1.328                  0.9912591       -26.73687
1.332                  0.9911935       -26.86465
1.336                  0.9911268       -26.99328
1.34                   0.9910591       -27.12278
1.344                  0.9909899       -27.25316
1.348                  0.9909192       -27.38442
1.352                  0.9908469       -27.51658
1.356                  0.9907724       -27.64964
1.36                   0.9906958       -27.78361
1.364                  0.9906167       -27.91851
1.368                  0.9905349       -28.05433
1.372                  0.9904502        -28.1911
1.376                  0.9903622       -28.32882
1.38                   0.9902708       -28.46749
1.384                  0.9901758       -28.60712
1.388                  0.9900769       -28.74772
1.392                  0.9899737        -28.8893
1.396                  0.9898662       -29.03185
1.4                    0.9897542       -29.17538
1.404                  0.9896371       -29.31991
1.408                  0.9895149       -29.46542
1.412                  0.9893874       -29.61193
1.416                  0.9892542       -29.75944
1.42                   0.9891152       -29.90796
1.424                    0.98897       -30.05747
1.428                  0.9888187       -30.20799
1.432                  0.9886607       -30.35951
1.436                   0.988496       -30.51205
1.44                   0.9883241       -30.66559
1.444                  0.9881453       -30.82014
1.448                  0.9879591       -30.97569
1.452                  0.9877652       -31.13226
1.456                  0.9875635       -31.28984
1.46                   0.9873539       -31.44842
1.464                  0.9871362         -31.608
1.468                  0.9869101        -31.7686
1.472                  0.9866756       -31.93019
1.476                  0.9864324       -32.09279
1.48                   0.9861804       -32.25638
1.484                  0.9859196       -32.42097
1.488                  0.9856497       -32.58656
1.492                  0.9853706       -32.75313
1.496                  0.9850823        -32.9207
1.5                    0.9847846       -33.08926
1.504                  0.9844774       -33.25881
1.508                  0.9841607       -33.42933
1.512                  0.9838343       -33.60084
1.516                  0.9834984       -33.77333
1.52                   0.9831526        -33.9468
1.524                  0.9827972       -34.12124
1.528                  0.9824318       -34.29667
1.532                  0.9820566       -34.47307
1.536                  0.9816717       -34.65043
1.54                   0.9812768       -34.82878
1.544                   0.980872        -35.0081
1.548                  0.9804575       -35.18839
1.552                  0.9800331       -35.36966
1.556                   0.979599       -35.55189
1.56                    0.979155       -35.73512
1.564                  0.9787015       -35.91932
1.568                  0.9782383        -36.1045
1.572                  0.9777654       -36.29068
1.576                  0.9772831       -36.47783
1.58                   0.9767914       -36.66599
1.584                  0.9762903       -36.85515
1.588                  0.9757799       -37.04531
1.592                  0.9752603       -37.23649
1.596                  0.9747317        -37.4287
1.6                    0.9741941       -37.62193
1.604                  0.9736477        -37.8162
1.608                  0.9730924       -38.01153
1.612                  0.9725286       -38.20792
1.616                  0.9719563       -38.40538
1.62                   0.9713754       -38.60394
1.624                  0.9707863       -38.80359
1.628                   0.970189       -39.00436
1.632                  0.9695837       -39.20627
1.636                  0.9689705       -39.40933
1.64                   0.9683494       -39.61355
1.644                  0.9677204       -39.81897
1.648                  0.9670839       -40.02559
1.652                  0.9664399       -40.23344
1.656                  0.9657884       -40.44256
1.66                   0.9651296       -40.65294
1.664                  0.9644634       -40.86463
1.668                  0.9637902       -41.07765
1.672                  0.9631097       -41.29202
1.676                  0.9624223       -41.50778
1.68                   0.9617278       -41.72495
1.684                  0.9610262       -41.94356
1.688                  0.9603178       -42.16364
1.692                  0.9596024       -42.38523
1.696                    0.95888       -42.60837
1.7                    0.9581506       -42.83308
1.704                  0.9574142        -43.0594
1.708                  0.9566709       -43.28737
1.712                  0.9559204       -43.51703
1.716                  0.9551627       -43.74842
1.72                   0.9543977       -43.98156
1.724                  0.9536253       -44.21652
1.728                  0.9528455       -44.45331
1.732                  0.9520578       -44.69201
1.736                  0.9512624       -44.93263
1.74                   0.9504589       -45.17523
1.744                  0.9496473       -45.41985
1.748                  0.9488271       -45.66654
1.752                  0.9479982       -45.91534
1.756                  0.9471602       -46.16632
1.76                    0.946313       -46.41949
1.764                   0.945456       -46.67493
1.768                  0.9445892       -46.93267
1.772                  0.9437118       -47.19277
1.776                  0.9428238       -47.45528
1.78                   0.9419245       -47.72024
1.784                  0.9410138       -47.98771
1.788                  0.9400908       -48.25775
1.792                  0.9391554       -48.53039
1.796                  0.9382068        -48.8057
1.8                    0.9372446       -49.08372
1.804                  0.9362681       -49.36452
1.808                  0.9352768       -49.64812
1.812                  0.9342702       -49.93461
1.816                  0.9332475       -50.22402
1.82                   0.9322081        -50.5164
1.824                  0.9311513       -50.81181
1.828                  0.9300764        -51.1103
1.832                  0.9289825       -51.41193
1.836                  0.9278692       -51.71675
1.84                   0.9267355       -52.02481
1.844                  0.9255806       -52.33615
1.848                  0.9244038       -52.65084
1.852                   0.923204       -52.96891
1.856                  0.9219806       -53.29044
1.86                   0.9207328       -53.61545
1.864                  0.9194594       -53.94401
1.868                  0.9181595       -54.27616
1.872                  0.9168324       -54.61196
1.876                  0.9154771       -54.95145
1.88                   0.9140926       -55.29467
1.884                  0.9126778       -55.64168
1.888                  0.9112319       -55.99252
1.892                  0.9097539       -56.34724
1.896                  0.9082426       -56.70589
1.9                    0.9066971       -57.06851
1.904                  0.9051163       -57.43515
1.908                  0.9034993       -57.80584
1.912                  0.9018448       -58.18064
1.916                  0.9001521       -58.55957
1.92                   0.8984199       -58.94271
1.924                  0.8966471       -59.33006
1.928                  0.8948327        -59.7217
1.932                  0.8929757       -60.11764
1.936                  0.8910749       -60.51794
1.94                   0.8891294       -60.92262
1.944                  0.8871379       -61.33173
1.948                  0.8850996        -61.7453
1.952                  0.8830132       -62.16339
1.956                  0.8808777       -62.58601
1.96                   0.8786921       -63.01323
1.964                  0.8764556       -63.44504
1.968                  0.8741665       -63.88151
1.972                  0.8718244       -64.32266
1.976                  0.8694281       -64.76853
1.98                   0.8669765       -65.21916
1.984                  0.8644687        -65.6746
1.988                  0.8619037       -66.13485
1.992                  0.8592807       -66.59995
1.996                  0.8565985       -67.06995
2                      0.8538563       -67.54487
2.004                  0.8510534       -68.02476
2.008                  0.8481885       -68.50965
2.012                  0.8452609       -68.99956
2.016                    0.84227       -69.49455
2.02                   0.8392149       -69.99461
2.024                  0.8360946       -70.49983
2.028                  0.8329085       -71.01021
2.032                  0.8296558        -71.5258
2.036                   0.826336       -72.04662
2.04                   0.8229482       -72.57274
2.044                  0.8194918       -73.10415
2.048                  0.8159662       -73.64092
2.052                   0.812371       -74.18309
2.056                  0.8087054       -74.73069
2.06                   0.8049689       -75.28377
2.064                  0.8011613       -75.84235
2.068                  0.7972818       -76.40652
2.072                  0.7933303       -76.97627
2.076                  0.7893063        -77.5517
2.08                   0.7852094       -78.13281
2.084                  0.7810395       -78.71967
2.088                  0.7767963       -79.31236
2.092                  0.7724796        -79.9109
2.096                  0.7680891       -80.51534
2.1                    0.7636249       -81.12576
2.104                  0.7590868       -81.74221
2.108                  0.7544748       -82.36477
2.112                  0.7497889        -82.9935
2.116                  0.7450292       -83.62846
2.12                   0.7401959       -84.26974
2.124                  0.7352889        -84.9174
2.128                  0.7303089       -85.57152
2.132                  0.7252556       -86.23219
2.136                  0.7201296       -86.89951
2.14                   0.7149313       -87.57355
2.144                   0.709661       -88.25441
2.148                  0.7043192       -88.94223
2.152                  0.6989065       -89.63706
2.156                  0.6934234       -90.33904
2.16                   0.6878704        -91.0483
2.164                  0.6822485       -91.76494
2.168                  0.6765582       -92.48912
2.172                  0.6708004       -93.22094
2.176                   0.664976       -93.96057
2.18                   0.6590858       -94.70815
2.184                  0.6531308       -95.46384
2.188                  0.6471121       -96.22783
2.192                  0.6410308       -97.00025
2.196                   0.634888       -97.78135
2.2                     0.628685       -98.57128
2.204                   0.622423       -99.37023
2.208                  0.6161035       -100.1785
2.212                  0.6097279       -100.9962
2.216                  0.6032975       -101.8237
2.22                   0.5968142       -102.6611
2.224                  0.5902794       -103.5088
2.228                  0.5836947       -104.3671
2.232                  0.5770623       -105.2361
2.236                  0.5703838       -106.1164
2.24                   0.5636611       -107.0081
2.244                  0.5568963       -107.9116
2.248                  0.5500918       -108.8273
2.252                  0.5432492       -109.7556
2.256                  0.5363714       -110.6969
2.26                   0.5294604       -111.6516
2.264                  0.5225187       -112.6201
2.268                  0.5155492        -113.603
2.272                  0.5085542       -114.6007
2.276                  0.5015368       -115.6139
2.28                   0.4944997       -116.6429
2.284                   0.487446       -117.6884
2.288                  0.4803787       -118.7511
2.292                  0.4733014       -119.8316
2.296                  0.4662171       -120.9305
2.3                    0.4591296       -122.0486
2.304                  0.4520425       -123.1867
2.308                  0.4449597       -124.3454
2.312                  0.4378851       -125.5258
2.316                  0.4308229       -126.7286
2.32                   0.4237774       -127.9548
2.324                  0.4167533       -129.2053
2.328                   0.409755       -130.4811
2.332                  0.4027877       -131.7833
2.336                  0.3958563        -133.113
2.34                   0.3889664       -134.4713
2.344                  0.3821233       -135.8595
2.348                  0.3753331       -137.2786
2.352                  0.3686018         -138.73