! TOUCHSTONE file generated by CST MICROWAVE STUDIO
! Date and time: Sat May 14 10:20:48 2022
! Project name: AppElm_antenne_dipole_Alumina.cst
! Parameters = {L=33; e=0.035; f=2.45e+09; h=1.6; i=0.8; l1=2.5; lambda=122.449; ls=30; wl=1.7; ws=80}
! Header version: 2018
! Port assignment regex: !\s*Touchstone port\s*([0-9]+)\s*=\s*(CST MWS port|CST DS port)\s*([0-9]+|Zmin|Zmax)\s*\(\"(.*)\"\)(\s*mode\s*([0-9]+))?.*
! Touchstone port assignment:
! Touchstone port 1 = CST MWS port 1 ("")
# GHz S MA R 50
0                              1              -0
0.004                  0.9999989     -0.07285839
0.008                  0.9999957      -0.1457111
0.012                  0.9999902      -0.2185524
0.016                  0.9999827      -0.2913768
0.02                    0.999973      -0.3641785
0.024                  0.9999611      -0.4369522
0.028                  0.9999474      -0.5096923
0.032                  0.9999315      -0.5823937
0.036                  0.9999136       -0.655051
0.04                   0.9998937      -0.7276591
0.044                   0.999872      -0.8002132
0.048                  0.9998485      -0.8727085
0.052                  0.9998233      -0.9451404
0.056                  0.9997964       -1.017505
0.06                   0.9997677       -1.089797
0.064                  0.9997375       -1.162014
0.068                   0.999706       -1.234151
0.072                   0.999673       -1.306205
0.076                  0.9996388       -1.378173
0.08                   0.9996034       -1.450052
0.084                  0.9995669        -1.52184
0.088                  0.9995293       -1.593533
0.092                   0.999491       -1.665131
0.096                  0.9994517       -1.736631
0.1                     0.999412       -1.808032
0.104                  0.9993715       -1.879333
0.108                  0.9993307       -1.950533
0.112                  0.9992893       -2.021631
0.116                   0.999248       -2.092628
0.12                   0.9992064       -2.163525
0.124                   0.999165        -2.23432
0.128                  0.9991234       -2.305017
0.132                  0.9990822       -2.375615
0.136                  0.9990413       -2.446116
0.14                   0.9990009       -2.516524
0.144                   0.998961       -2.586838
0.148                  0.9989218       -2.657064
0.152                  0.9988834       -2.727202
0.156                   0.998846       -2.797258
0.16                   0.9988093       -2.867234
0.164                  0.9987739       -2.937134
0.168                  0.9987397       -3.006963
0.172                  0.9987068       -3.076726
0.176                  0.9986752       -3.146426
0.18                   0.9986451       -3.216069
0.184                  0.9986166       -3.285662
0.188                  0.9985897       -3.355207
0.192                  0.9985645       -3.424714
0.196                   0.998541       -3.494187
0.2                    0.9985194       -3.563632
0.204                  0.9984998       -3.633056
0.208                   0.998482       -3.702466
0.212                  0.9984663       -3.771868
0.216                  0.9984526       -3.841271
0.22                   0.9984411        -3.91068
0.224                  0.9984317       -3.980102
0.228                  0.9984244       -4.049547
0.232                  0.9984193        -4.11902
0.236                  0.9984164       -4.188529
0.24                   0.9984156       -4.258084
0.244                  0.9984172       -4.327688
0.248                  0.9984209       -4.397353
0.252                  0.9984268       -4.467084
0.256                   0.998435        -4.53689
0.26                   0.9984452       -4.606778
0.264                  0.9984576       -4.676754
0.268                  0.9984721       -4.746827
0.272                  0.9984887       -4.817006
0.276                  0.9985072       -4.887295
0.28                   0.9985277       -4.957702
0.284                  0.9985502       -5.028234
0.288                  0.9985745       -5.098899
0.292                  0.9986005       -5.169702
0.296                  0.9986284        -5.24065
0.3                    0.9986578       -5.311748
0.304                  0.9986888       -5.383004
0.308                  0.9987212       -5.454423
0.312                  0.9987551       -5.526009
0.316                  0.9987902       -5.597768
0.32                   0.9988265       -5.669706
0.324                  0.9988639       -5.741826
0.328                  0.9989023       -5.814132
0.332                  0.9989415       -5.886631
0.336                  0.9989815       -5.959323
0.34                   0.9990222       -6.032213
0.344                  0.9990633       -6.105304
0.348                   0.999105       -6.178598
0.352                  0.9991469       -6.252098
0.356                   0.999189       -6.325805
0.36                   0.9992312       -6.399723
0.364                  0.9992733       -6.473851
0.368                  0.9993152        -6.54819
0.372                  0.9993568       -6.622742
0.376                   0.999398       -6.697506
0.38                   0.9994387       -6.772481
0.384                  0.9994787        -6.84767
0.388                  0.9995179       -6.923068
0.392                  0.9995563       -6.998676
0.396                  0.9995935       -7.074492
0.4                    0.9996297       -7.150515
0.404                  0.9996647       -7.226741
0.408                  0.9996983        -7.30317
0.412                  0.9997305       -7.379796
0.416                  0.9997611       -7.456619
0.42                   0.9997902       -7.533633
0.424                  0.9998174       -7.610837
0.428                  0.9998431       -7.688225
0.432                  0.9998667       -7.765793
0.436                  0.9998884       -7.843538
0.44                   0.9999079       -7.921453
0.444                  0.9999254       -7.999537
0.448                  0.9999408        -8.07778
0.452                  0.9999539       -8.156181
0.456                  0.9999647       -8.234734
0.46                   0.9999732       -8.313431
0.464                  0.9999794       -8.392268
0.468                  0.9999832       -8.471241
0.472                  0.9999845        -8.55034
0.476                  0.9999833       -8.629563
0.48                   0.9999798       -8.708901
0.484                  0.9999737        -8.78835
0.488                  0.9999652       -8.867905
0.492                  0.9999544       -8.947557
0.496                   0.999941       -9.027303
0.5                    0.9999251       -9.107134
0.504                  0.9999071       -9.187049
0.508                  0.9998864       -9.267037
0.512                  0.9998636       -9.347095
0.516                  0.9998383       -9.427217
0.52                   0.9998109       -9.507398
0.524                  0.9997814       -9.587632
0.528                  0.9997496       -9.667913
0.532                  0.9997159       -9.748238
0.536                  0.9996801       -9.828604
0.54                   0.9996425       -9.909002
0.544                  0.9996031       -9.989431
0.548                  0.9995619       -10.06989
0.552                  0.9995189       -10.15037
0.556                  0.9994747       -10.23086
0.56                   0.9994289       -10.31137
0.564                  0.9993817        -10.3919
0.568                  0.9993335       -10.47244
0.572                   0.999284       -10.55299
0.576                  0.9992337       -10.63354
0.58                   0.9991824        -10.7141
0.584                  0.9991304       -10.79466
0.588                  0.9990778       -10.87523
0.592                  0.9990246       -10.95581
0.596                  0.9989711       -11.03638
0.6                    0.9989175       -11.11697
0.604                  0.9988636       -11.19756
0.608                  0.9988098       -11.27815
0.612                  0.9987562       -11.35875
0.616                  0.9987028       -11.43937
0.62                   0.9986499          -11.52
0.624                  0.9985975       -11.60064
0.628                  0.9985457       -11.68131
0.632                  0.9984948         -11.762
0.636                  0.9984447       -11.84272
0.64                   0.9983959       -11.92347
0.644                   0.998348       -12.00426
0.648                  0.9983015       -12.08509
0.652                  0.9982562       -12.16597
0.656                  0.9982125        -12.2469
0.66                   0.9981705        -12.3279
0.664                  0.9981301       -12.40896
0.668                  0.9980915        -12.4901
0.672                  0.9980547       -12.57132
0.676                    0.99802       -12.65264
0.68                   0.9979873       -12.73405
0.684                  0.9979567       -12.81556
0.688                  0.9979283       -12.89719
0.692                  0.9979021       -12.97895
0.696                  0.9978782       -13.06083
0.7                    0.9978567       -13.14286
0.704                  0.9978376       -13.22504
0.708                  0.9978209       -13.30738
0.712                  0.9978066       -13.38989
0.716                  0.9977949       -13.47258
0.72                   0.9977857       -13.55546
0.724                  0.9977788       -13.63854
0.728                  0.9977745       -13.72182
0.732                  0.9977726       -13.80533
0.736                  0.9977733       -13.88907
0.74                   0.9977763       -13.97304
0.744                  0.9977818       -14.05727
0.748                  0.9977897       -14.14175
0.752                  0.9977998        -14.2265
0.756                  0.9978122       -14.31153
0.76                    0.997827       -14.39685
0.764                  0.9978437       -14.48247
0.768                  0.9978627       -14.56839
0.772                  0.9978835       -14.65463
0.776                  0.9979062       -14.74119
0.78                   0.9979308       -14.82809
0.784                  0.9979571       -14.91533
0.788                  0.9979848       -15.00292
0.792                  0.9980142       -15.09086
0.796                  0.9980449       -15.17917
0.8                    0.9980769       -15.26785
0.804                  0.9981099       -15.35691
0.808                   0.998144       -15.44636
0.812                  0.9981788        -15.5362
0.816                  0.9982144       -15.62644
0.82                   0.9982506       -15.71708
0.824                  0.9982871       -15.80813
0.828                  0.9983239       -15.89959
0.832                  0.9983608       -15.99147
0.836                  0.9983978       -16.08377
0.84                   0.9984344       -16.17649
0.844                  0.9984707       -16.26964
0.848                  0.9985065       -16.36322
0.852                  0.9985417       -16.45724
0.856                  0.9985759       -16.55168
0.86                   0.9986092       -16.64656
0.864                  0.9986413       -16.74188
0.868                  0.9986721       -16.83763
0.872                  0.9987014       -16.93382
0.876                  0.9987291       -17.03045
0.88                   0.9987551        -17.1275
0.884                  0.9987791         -17.225
0.888                  0.9988008       -17.32292
0.892                  0.9988207       -17.42127
0.896                  0.9988379       -17.52005
0.9                    0.9988529       -17.61926
0.904                  0.9988651       -17.71888
0.908                  0.9988745       -17.81892
0.912                  0.9988812       -17.91938
0.916                  0.9988848       -18.02024
0.92                   0.9988854       -18.12151
0.924                  0.9988826       -18.22318
0.928                  0.9988768       -18.32524
0.932                  0.9988675       -18.42769
0.936                  0.9988548       -18.53052
0.94                   0.9988385       -18.63373
0.944                  0.9988186       -18.73732
0.948                  0.9987951       -18.84127
0.952                  0.9987679       -18.94558
0.956                   0.998737       -19.05024
0.96                   0.9987022       -19.15525
0.964                  0.9986636        -19.2606
0.968                  0.9986212       -19.36628
0.972                  0.9985749       -19.47229
0.976                  0.9985249       -19.57862
0.98                    0.998471       -19.68527
0.984                  0.9984133       -19.79222
0.988                  0.9983517       -19.89948
0.992                  0.9982866       -20.00702
0.996                  0.9982176       -20.11487
1                      0.9981451         -20.223
1.004                  0.9980689       -20.33138
1.008                   0.997989       -20.44007
1.012                  0.9979058         -20.549
1.016                  0.9978192       -20.65817
1.02                   0.9977292       -20.76764
1.024                  0.9976362       -20.87736
1.028                    0.99754        -20.9873
1.032                  0.9974409       -21.09751
1.036                  0.9973388       -21.20795
1.04                   0.9972341       -21.31865
1.044                  0.9971267       -21.42954
1.048                  0.9970169       -21.54068
1.052                  0.9969048       -21.65207
1.056                  0.9967904       -21.76368
1.06                   0.9966741       -21.87553
1.064                  0.9965558       -21.98757
1.068                  0.9964358       -22.09989
1.072                  0.9963143       -22.21245
1.076                  0.9961915        -22.3252
1.08                   0.9960674        -22.4382
1.084                  0.9959422       -22.55144
1.088                  0.9958161       -22.66491
1.092                  0.9956893       -22.77867
1.096                   0.995562       -22.89265
1.1                    0.9954344       -23.00688
1.104                  0.9953065       -23.12138
1.108                  0.9951785       -23.23613
1.112                  0.9950508       -23.35118
1.116                  0.9949233       -23.46647
1.12                   0.9947964       -23.58209
1.124                    0.99467       -23.69799
1.128                  0.9945444        -23.8142
1.132                  0.9944198       -23.93074
1.136                  0.9942962        -24.0476
1.14                    0.994174        -24.1648
1.144                  0.9940531       -24.28235
1.148                  0.9939336       -24.40027
1.152                  0.9938159       -24.51856
1.156                  0.9936997       -24.63724
1.16                   0.9935855       -24.75633
1.164                  0.9934734       -24.87583
1.168                  0.9933632       -24.99577
1.172                  0.9932551       -25.11615
1.176                  0.9931492         -25.237
1.18                   0.9930458       -25.35832
1.184                  0.9929445       -25.48015
1.188                  0.9928456       -25.60248
1.192                  0.9927493       -25.72535
1.196                  0.9926554       -25.84876
1.2                    0.9925638       -25.97273
1.204                  0.9924748       -26.09729
1.208                  0.9923882       -26.22245
1.212                  0.9923041       -26.34823
1.216                  0.9922224       -26.47464
1.22                   0.9921431       -26.60171
1.224                  0.9920661       -26.72946
1.228                  0.9919913       -26.85789
1.232                  0.9919188       -26.98704
1.236                  0.9918484       -27.11691
1.24                     0.99178       -27.24754
1.244                  0.9917134       -27.37893
1.248                  0.9916486       -27.51111
1.252                  0.9915854       -27.64409
1.256                  0.9915237       -27.77789
1.26                   0.9914634       -27.91253
1.264                  0.9914043       -28.04803
1.268                  0.9913461        -28.1844
1.272                  0.9912888       -28.32167
1.276                   0.991232       -28.45984
1.28                   0.9911756       -28.59894
1.284                  0.9911194       -28.73897
1.288                  0.9910632       -28.87996
1.292                  0.9910068       -29.02192
1.296                  0.9909498       -29.16487
1.3                    0.9908919       -29.30883
1.304                  0.9908332       -29.45378
1.308                  0.9907731       -29.59978
1.312                  0.9907116       -29.74681
1.316                  0.9906482       -29.89489
1.32                   0.9905827       -30.04403
1.324                  0.9905148       -30.19425
1.328                  0.9904442       -30.34556
1.332                  0.9903706       -30.49796
1.336                  0.9902939       -30.65147
1.34                   0.9902135       -30.80609
1.344                  0.9901293       -30.96183
1.348                   0.990041        -31.1187
1.352                  0.9899482        -31.2767
1.356                  0.9898508       -31.43585
1.36                   0.9897481       -31.59615
1.364                  0.9896402        -31.7576
1.368                  0.9895267        -31.9202
1.372                  0.9894071       -32.08397
1.376                  0.9892814       -32.24891
1.38                   0.9891493       -32.41501
1.384                  0.9890102       -32.58228
1.388                  0.9888642       -32.75073
1.392                  0.9887108       -32.92034
1.396                  0.9885499       -33.09113
1.4                    0.9883812        -33.2631
1.404                  0.9882042       -33.43624
1.408                   0.988019       -33.61056
1.412                  0.9878252       -33.78605
1.416                  0.9876225       -33.96271
1.42                   0.9874109       -34.14054
1.424                  0.9871901       -34.31954
1.428                  0.9869599        -34.4997
1.432                    0.98672       -34.68103
1.436                  0.9864706       -34.86352
1.44                    0.986211       -35.04717
1.444                  0.9859414       -35.23198
1.448                  0.9856616       -35.41793
1.452                  0.9853713       -35.60504
1.456                  0.9850707       -35.79329
1.46                   0.9847596       -35.98269
1.464                  0.9844375       -36.17323
1.468                  0.9841051        -36.3649
1.472                  0.9837615       -36.55772
1.476                  0.9834074       -36.75166
1.48                    0.983042       -36.94674
1.484                  0.9826659       -37.14294
1.488                  0.9822788       -37.34027
1.492                  0.9818808       -37.53873
1.496                  0.9814719       -37.73831
1.5                    0.9810519       -37.93902
1.504                  0.9806211       -38.14085
1.508                  0.9801793       -38.34381
1.512                  0.9797268        -38.5479
1.516                  0.9792637       -38.75312
1.52                   0.9787897       -38.95948
1.524                  0.9783052       -39.16696
1.528                  0.9778103       -39.37558
1.532                  0.9773049       -39.58536
1.536                  0.9767892       -39.79629
1.54                   0.9762634       -40.00837
1.544                  0.9757275       -40.22163
1.548                  0.9751818       -40.43605
1.552                  0.9746263       -40.65167
1.556                  0.9740612       -40.86848
1.56                   0.9734865       -41.08649
1.564                  0.9729024       -41.30574
1.568                  0.9723092       -41.52622
1.572                  0.9717071       -41.74794
1.576                   0.971096       -41.97094
1.58                   0.9704763       -42.19523
1.584                  0.9698479       -42.42081
1.588                  0.9692111       -42.64773
1.592                  0.9685662         -42.876
1.596                  0.9679131       -43.10563
1.6                     0.967252       -43.33667
1.604                  0.9665831       -43.56912
1.608                  0.9659065       -43.80302
1.612                  0.9652223        -44.0384
1.616                  0.9645307       -44.27529
1.62                   0.9638316       -44.51372
1.624                  0.9631253       -44.75372
1.628                  0.9624119       -44.99533
1.632                  0.9616913       -45.23857
1.636                  0.9609637       -45.48349
1.64                   0.9602291       -45.73013
1.644                  0.9594875       -45.97852
1.648                  0.9587389       -46.22872
1.652                  0.9579835       -46.48074
1.656                  0.9572211       -46.73465
1.66                   0.9564515       -46.99048
1.664                  0.9556749       -47.24829
1.668                   0.954891       -47.50812
1.672                     0.9541       -47.77001
1.676                  0.9533015       -48.03402
1.68                   0.9524956       -48.30018
1.684                  0.9516817       -48.56858
1.688                  0.9508601       -48.83924
1.692                  0.9500303       -49.11224
1.696                  0.9491921       -49.38759
1.7                    0.9483453       -49.66538
1.704                  0.9474896       -49.94566
1.708                  0.9466244       -50.22849
1.712                  0.9457497       -50.51393
1.716                   0.944865       -50.80201
1.72                   0.9439698       -51.09283
1.724                  0.9430639       -51.38641
1.728                  0.9421464       -51.68285
1.732                  0.9412172       -51.98217
1.736                  0.9402758       -52.28445
1.74                   0.9393213       -52.58976
1.744                  0.9383534       -52.89816
1.748                  0.9373713       -53.20969
1.752                  0.9363746       -53.52443
1.756                  0.9353624       -53.84243
1.76                   0.9343342       -54.16378
1.764                  0.9332892        -54.4885
1.768                  0.9322267       -54.81668
1.772                  0.9311457       -55.14838
1.776                  0.9300457       -55.48365
1.78                   0.9289255       -55.82257
1.784                  0.9277847       -56.16518
1.788                  0.9266222       -56.51156
1.792                   0.925437       -56.86176
1.796                  0.9242283       -57.21584
1.8                    0.9229953       -57.57386
1.804                  0.9217367       -57.93589
1.808                  0.9204517       -58.30198
1.812                  0.9191394       -58.67218
1.816                  0.9177984       -59.04658
1.82                   0.9164282       -59.42519
1.824                  0.9150272       -59.80812
1.828                  0.9135947       -60.19538
1.832                  0.9121295       -60.58705
1.836                  0.9106305       -60.98318
1.84                   0.9090965       -61.38382
1.844                  0.9075266       -61.78904
1.848                  0.9059194       -62.19888
1.852                  0.9042739       -62.61339
1.856                  0.9025889       -63.03263
1.86                   0.9008634       -63.45665
1.864                   0.899096        -63.8855
1.868                  0.8972858       -64.31922
1.872                  0.8954315       -64.75786
1.876                   0.893532       -65.20149
1.88                    0.891586       -65.65015
1.884                  0.8895926       -66.10387
1.888                  0.8875504       -66.56271
1.892                  0.8854587        -67.0267
1.896                  0.8833158       -67.49592
1.9                    0.8811208       -67.97039
1.904                  0.8788728       -68.45017
1.908                  0.8765706       -68.93529
1.912                  0.8742129       -69.42579
1.916                  0.8717988       -69.92175
1.92                   0.8693275       -70.42317
1.924                  0.8667975        -70.9301
1.928                  0.8642082       -71.44261
1.932                  0.8615583       -71.96072
1.936                   0.858847        -72.4845
1.94                   0.8560734       -73.01397
1.944                  0.8532364       -73.54918
1.948                  0.8503355       -74.09016
1.952                  0.8473694       -74.63698
1.956                  0.8443374       -75.18968
1.96                   0.8412389       -75.74828
1.964                   0.838073       -76.31285
1.968                  0.8348389       -76.88343
1.972                  0.8315361       -77.46006
1.976                  0.8281638       -78.04282
1.98                   0.8247214       -78.63172
1.984                  0.8212084       -79.22682
1.988                  0.8176242       -79.82817
1.992                  0.8139682       -80.43584
1.996                  0.8102402       -81.04988
2                      0.8064396       -81.67032
2.004                  0.8025663       -82.29723
2.008                  0.7986196       -82.93069
2.012                  0.7945994       -83.57073
2.016                  0.7905056       -84.21744
2.02                   0.7863379       -84.87087
2.024                  0.7820961       -85.53109
2.028                  0.7777804       -86.19817
2.032                  0.7733906       -86.87217
2.036                  0.7689268        -87.5532
2.04                    0.764389       -88.24131
2.044                  0.7597776       -88.93659
2.048                  0.7550925       -89.63913
2.052                  0.7503341         -90.349
2.056                  0.7455028       -91.06632
2.06                   0.7405989       -91.79117
2.064                  0.7356229       -92.52365
2.068                  0.7305752       -93.26388
2.072                  0.7254565       -94.01196
2.076                  0.7202673       -94.76801
2.08                   0.7150085       -95.53214
2.084                  0.7096806        -96.3045
2.088                  0.7042847       -97.08519
2.092                  0.6988214       -97.87438
2.096                  0.6932922        -98.6722
2.1                    0.6876975       -99.47879
2.104                  0.6820386       -100.2943
2.108                  0.6763169        -101.119
2.112                  0.6705335       -101.9529
2.116                  0.6646897       -102.7963
2.12                    0.658787       -103.6494
2.124                  0.6528268       -104.5123
2.128                  0.6468107       -105.3852
2.132                  0.6407402       -106.2685
2.136                  0.6346172       -107.1622
2.14                   0.6284433       -108.0667
2.144                  0.6222207       -108.9822
2.148                  0.6159509        -109.909
2.152                  0.6096363       -110.8473
2.156                  0.6032789       -111.7974
2.16                    0.596881       -112.7597
2.164                  0.5904448       -113.7343
2.168                  0.5839728       -114.7218
2.172                  0.5774676       -115.7223
2.176                  0.5709316       -116.7363
2.18                   0.5643676       -117.7642
2.184                  0.5577784       -118.8062
2.188                   0.551167       -119.8629
2.192                  0.5445364       -120.9347
2.196                  0.5378896       -122.0219
2.2                    0.5312299       -123.1251
2.204                   0.524561       -124.2447
2.208                  0.5178858       -125.3812
2.212                  0.5112084       -126.5352
2.216                  0.5045322       -127.7071
2.22                   0.4978613       -128.8976
2.224                  0.4911997       -130.1071
2.228                  0.4845515       -131.3363
2.232                   0.477921       -132.5859
2.236                  0.4713125       -133.8563
2.24                   0.4647308       -135.1483
2.244                  0.4581806       -136.4625
2.248                  0.4516666       -137.7996
2.252                  0.4451942       -139.1603
2.256                  0.4387683       -140.5452
2.26                   0.4323944       -141.9551
2.264                  0.4260781       -143.3908
2.268                  0.4198252       -144.8528
2.272                  0.4136415       -146.3419
2.276                  0.4075331       -147.8589
2.28                   0.4015061       -149.4044
2.284                  0.3955672        -150.979
2.288                  0.3897227       -152.5835
2.292                  0.3839795       -154.2184
2.296                  0.3783444       -155.8844
2.3                    0.3728244       -157.5818
2.304                  0.3674267       -159.3113
2.308                  0.3621585       -161.0731
2.312                  0.3570272       -162.8676
2.316                  0.3520402       -164.6949
2.32                   0.3472049       -166.5552
2.324                  0.3425288       -168.4484
2.328                  0.3380193       -170.3744
2.332                  0.3336839       -172.3328
2.336                  0.3295297       -174.3231
2.34                    0.325564       -176.3447
2.344                  0.3217938       -178.3966
2.348                  0.3182255        179.5222
2.352                  0.3148659        177.4129