! TOUCHSTONE file generated by CST MICROWAVE STUDIO
! Date and time: Sat May 14 10:20:46 2022
! Project name: AppElm_antenne_dipole_Alumina.cst
! Parameters = {L=33; e=0.035; f=2.45e+09; h=1.6; i=0.8; l1=2.3; lambda=122.449; ls=30; wl=1.7; ws=80}
! Header version: 2018
! Port assignment regex: !\s*Touchstone port\s*([0-9]+)\s*=\s*(CST MWS port|CST DS port)\s*([0-9]+|Zmin|Zmax)\s*\(\"(.*)\"\)(\s*mode\s*([0-9]+))?.*
! Touchstone port assignment:
! Touchstone port 1 = CST MWS port 1 ("")
# GHz S MA R 50
0                              1              -0
0.004                  0.9999988     -0.07163289
0.008                  0.9999951      -0.1432593
0.012                  0.9999889      -0.2148727
0.016                  0.9999803      -0.2864666
0.02                   0.9999693      -0.3580348
0.024                   0.999956      -0.4295709
0.028                  0.9999401      -0.5010686
0.032                  0.9999222      -0.5725218
0.036                  0.9999019      -0.6439246
0.04                   0.9998794      -0.7152712
0.044                  0.9998548      -0.7865559
0.048                   0.999828      -0.8577732
0.052                  0.9997993      -0.9289178
0.056                  0.9997685      -0.9999848
0.06                   0.9997361       -1.070969
0.064                  0.9997017       -1.141867
0.068                  0.9996658       -1.212673
0.072                  0.9996282       -1.283383
0.076                  0.9995892       -1.353994
0.08                   0.9995489       -1.424503
0.084                  0.9995072       -1.494906
0.088                  0.9994644         -1.5652
0.092                  0.9994206       -1.635383
0.096                  0.9993758       -1.705453
0.1                    0.9993303       -1.775407
0.104                  0.9992841       -1.845246
0.108                  0.9992372       -1.914966
0.112                    0.99919       -1.984568
0.116                  0.9991423       -2.054052
0.12                   0.9990947       -2.123418
0.124                  0.9990468       -2.192664
0.128                  0.9989991       -2.261794
0.132                  0.9989517       -2.330807
0.136                  0.9989045       -2.399706
0.14                   0.9988578       -2.468492
0.144                  0.9988117       -2.537168
0.148                  0.9987662       -2.605736
0.152                  0.9987217         -2.6742
0.156                   0.998678       -2.742562
0.16                   0.9986356       -2.810826
0.164                  0.9985942       -2.878998
0.168                  0.9985541       -2.947081
0.172                  0.9985154       -3.015079
0.176                  0.9984782       -3.082999
0.18                   0.9984426       -3.150846
0.184                  0.9984088       -3.218624
0.188                  0.9983767       -3.286341
0.192                  0.9983466       -3.354002
0.196                  0.9983183       -3.421615
0.2                    0.9982922       -3.489186
0.204                  0.9982681       -3.556721
0.208                  0.9982463       -3.624229
0.212                  0.9982268       -3.691716
0.216                  0.9982094       -3.759191
0.22                   0.9981944        -3.82666
0.224                  0.9981818       -3.894134
0.228                  0.9981716       -3.961617
0.232                  0.9981641        -4.02912
0.236                  0.9981588        -4.09665
0.24                    0.998156       -4.164216
0.244                  0.9981558       -4.231825
0.248                   0.998158       -4.299487
0.252                  0.9981628        -4.36721
0.256                    0.99817       -4.435002
0.26                   0.9981796       -4.502872
0.264                  0.9981918       -4.570827
0.268                  0.9982064       -4.638876
0.272                  0.9982235       -4.707027
0.276                  0.9982427       -4.775287
0.28                   0.9982642       -4.843667
0.284                   0.998288       -4.912171
0.288                  0.9983139       -4.980808
0.292                  0.9983419       -5.049586
0.296                  0.9983719       -5.118511
0.3                    0.9984039       -5.187592
0.304                  0.9984376       -5.256833
0.308                  0.9984733       -5.326242
0.312                  0.9985105       -5.395824
0.316                  0.9985494       -5.465586
0.32                   0.9985895       -5.535535
0.324                  0.9986311       -5.605673
0.328                  0.9986739       -5.676007
0.332                  0.9987179        -5.74654
0.336                  0.9987629       -5.817279
0.34                   0.9988086       -5.888226
0.344                  0.9988552       -5.959384
0.348                  0.9989023       -6.030758
0.352                  0.9989501        -6.10235
0.356                  0.9989981       -6.174162
0.36                   0.9990464       -6.246197
0.364                  0.9990947       -6.318456
0.368                   0.999143        -6.39094
0.372                  0.9991911        -6.46365
0.376                  0.9992388       -6.536588
0.38                   0.9992864       -6.609752
0.384                  0.9993331       -6.683144
0.388                  0.9993791       -6.756762
0.392                  0.9994246       -6.830603
0.396                  0.9994687       -6.904669
0.4                    0.9995119       -6.978957
0.404                  0.9995539       -7.053464
0.408                  0.9995944       -7.128189
0.412                  0.9996336       -7.203127
0.416                  0.9996711       -7.278278
0.42                   0.9997069       -7.353635
0.424                   0.999741       -7.429196
0.428                  0.9997732       -7.504957
0.432                  0.9998034       -7.580913
0.436                  0.9998315       -7.657059
0.44                   0.9998575       -7.733391
0.444                  0.9998811       -7.809904
0.448                  0.9999024        -7.88659
0.452                  0.9999213       -7.963445
0.456                  0.9999379       -8.040466
0.46                   0.9999519       -8.117641
0.464                  0.9999632       -8.194969
0.468                  0.9999718        -8.27244
0.472                   0.999978        -8.35005
0.476                  0.9999813       -8.427792
0.48                   0.9999819       -8.505658
0.484                  0.9999799       -8.583643
0.488                  0.9999751        -8.66174
0.492                  0.9999674       -8.739941
0.496                  0.9999571       -8.818238
0.5                    0.9999441       -8.896627
0.504                  0.9999283       -8.975101
0.508                  0.9999097       -9.053654
0.512                  0.9998887       -9.132275
0.516                  0.9998648       -9.210964
0.52                   0.9998384       -9.289707
0.524                  0.9998095       -9.368505
0.528                  0.9997781       -9.447348
0.532                  0.9997443       -9.526231
0.536                  0.9997081       -9.605148
0.54                   0.9996698       -9.684094
0.544                  0.9996292       -9.763064
0.548                  0.9995866       -9.842052
0.552                  0.9995419       -9.921054
0.556                  0.9994954       -10.00007
0.56                   0.9994471       -10.07908
0.564                  0.9993971        -10.1581
0.568                  0.9993454       -10.23712
0.572                  0.9992925       -10.31613
0.576                  0.9992381       -10.39514
0.58                   0.9991826       -10.47413
0.584                  0.9991261       -10.55311
0.588                  0.9990687       -10.63208
0.592                  0.9990104       -10.71104
0.596                  0.9989515       -10.78998
0.6                     0.998892        -10.8689
0.604                  0.9988323       -10.94781
0.608                  0.9987721        -11.0267
0.612                  0.9987121       -11.10558
0.616                   0.998652       -11.18445
0.62                   0.9985921        -11.2633
0.624                  0.9985326       -11.34215
0.628                  0.9984736       -11.42099
0.632                  0.9984151       -11.49983
0.636                  0.9983576       -11.57866
0.64                   0.9983008       -11.65751
0.644                  0.9982451       -11.73636
0.648                  0.9981905       -11.81523
0.652                  0.9981374       -11.89412
0.656                  0.9980856       -11.97303
0.66                   0.9980354       -12.05197
0.664                  0.9979867       -12.13096
0.668                    0.99794       -12.20998
0.672                  0.9978952       -12.28906
0.676                  0.9978523        -12.3682
0.68                   0.9978115       -12.44741
0.684                  0.9977729       -12.52669
0.688                  0.9977367       -12.60606
0.692                  0.9977028       -12.68552
0.696                  0.9976712       -12.76508
0.7                    0.9976422       -12.84475
0.704                  0.9976158       -12.92455
0.708                  0.9975919       -13.00448
0.712                  0.9975709       -13.08455
0.716                  0.9975524       -13.16477
0.72                   0.9975367       -13.24515
0.724                  0.9975237        -13.3257
0.728                  0.9975135       -13.40644
0.732                  0.9975061       -13.48736
0.736                  0.9975015        -13.5685
0.74                   0.9974996       -13.64984
0.744                  0.9975005       -13.73142
0.748                   0.997504       -13.81323
0.752                  0.9975103       -13.89528
0.756                  0.9975193       -13.97759
0.76                   0.9975309       -14.06017
0.764                   0.997545       -14.14303
0.768                  0.9975617       -14.22617
0.772                  0.9975806       -14.30962
0.776                   0.997602       -14.39337
0.78                   0.9976256       -14.47744
0.784                  0.9976513       -14.56184
0.788                  0.9976791       -14.64657
0.792                  0.9977089       -14.73165
0.796                  0.9977404       -14.81708
0.8                    0.9977737       -14.90288
0.804                  0.9978086       -14.98905
0.808                  0.9978448       -15.07559
0.812                  0.9978826       -15.16252
0.816                  0.9979213       -15.24985
0.82                   0.9979611       -15.33757
0.824                  0.9980018        -15.4257
0.828                  0.9980432       -15.51424
0.832                  0.9980851        -15.6032
0.836                  0.9981275       -15.69257
0.84                   0.9981699       -15.78238
0.844                  0.9982126       -15.87262
0.848                  0.9982551       -15.96329
0.852                  0.9982975       -16.05439
0.856                  0.9983391       -16.14594
0.86                   0.9983803       -16.23793
0.864                  0.9984207       -16.33036
0.868                  0.9984601       -16.42324
0.872                  0.9984984       -16.51656
0.876                  0.9985352       -16.61033
0.88                   0.9985707       -16.70455
0.884                  0.9986045       -16.79921
0.888                  0.9986364       -16.89432
0.892                  0.9986664       -16.98986
0.896                  0.9986945       -17.08585
0.9                    0.9987199       -17.18228
0.904                   0.998743       -17.27914
0.908                  0.9987637       -17.37644
0.912                  0.9987813       -17.47417
0.916                  0.9987962       -17.57231
0.92                   0.9988082       -17.67088
0.924                   0.998817       -17.76987
0.928                  0.9988225       -17.86927
0.932                  0.9988246       -17.96907
0.936                  0.9988233       -18.06927
0.94                   0.9988184       -18.16987
0.944                  0.9988099       -18.27086
0.948                  0.9987975       -18.37222
0.952                  0.9987815       -18.47396
0.956                  0.9987615       -18.57607
0.96                   0.9987375       -18.67854
0.964                  0.9987095       -18.78137
0.968                  0.9986775       -18.88454
0.972                  0.9986414       -18.98805
0.976                  0.9986012       -19.09189
0.98                   0.9985569       -19.19606
0.984                  0.9985083       -19.30055
0.988                  0.9984559       -19.40534
0.992                  0.9983992       -19.51044
0.996                  0.9983385       -19.61584
1                      0.9982737       -19.72152
1.004                  0.9982049       -19.82748
1.008                  0.9981321        -19.9337
1.012                  0.9980553       -20.04023
1.016                  0.9979747         -20.147
1.02                   0.9978904       -20.25404
1.024                  0.9978023        -20.3613
1.028                  0.9977107       -20.46881
1.032                  0.9976156       -20.57656
1.036                   0.997517       -20.68456
1.04                   0.9974152       -20.79278
1.044                  0.9973102       -20.90121
1.048                  0.9972022        -21.0099
1.052                  0.9970913       -21.11877
1.056                  0.9969776       -21.22789
1.06                   0.9968613       -21.33717
1.064                  0.9967426        -21.4467
1.068                  0.9966215       -21.55642
1.072                  0.9964984       -21.66636
1.076                  0.9963732       -21.77649
1.08                   0.9962463       -21.88684
1.084                  0.9961178        -21.9974
1.088                  0.9959878       -22.10817
1.092                  0.9958565       -22.21914
1.096                  0.9957243       -22.33034
1.1                    0.9955909       -22.44175
1.104                   0.995457       -22.55335
1.108                  0.9953225       -22.66523
1.112                  0.9951877       -22.77728
1.116                  0.9950528       -22.88962
1.12                   0.9949178       -23.00218
1.124                   0.994783       -23.11499
1.128                  0.9946486       -23.22806
1.132                  0.9945148        -23.3414
1.136                  0.9943816       -23.45501
1.14                   0.9942494       -23.56891
1.144                  0.9941184       -23.68309
1.148                  0.9939883       -23.79759
1.152                  0.9938598        -23.9124
1.156                  0.9937328       -24.02754
1.16                   0.9936074       -24.14302
1.164                  0.9934839       -24.25885
1.168                  0.9933623       -24.37506
1.172                  0.9932426       -24.49164
1.176                  0.9931251       -24.60862
1.18                   0.9930098       -24.72602
1.184                   0.992897       -24.84384
1.188                  0.9927865       -24.96211
1.192                  0.9926786       -25.08083
1.196                  0.9925732       -25.20003
1.2                    0.9924703       -25.31973
1.204                  0.9923704       -25.43994
1.208                  0.9922729       -25.56068
1.212                  0.9921782       -25.68197
1.216                  0.9920862       -25.80382
1.22                   0.9919969       -25.92626
1.224                  0.9919104        -26.0493
1.228                  0.9918264       -26.17297
1.232                  0.9917452       -26.29727
1.236                  0.9916664       -26.42224
1.24                   0.9915903       -26.54789
1.244                  0.9915165       -26.67423
1.248                  0.9914453       -26.80129
1.252                  0.9913761        -26.9291
1.256                  0.9913092       -27.05765
1.26                   0.9912442       -27.18699
1.264                  0.9911811       -27.31711
1.268                  0.9911198       -27.44805
1.272                    0.99106       -27.57982
1.276                  0.9910017       -27.71244
1.28                   0.9909445       -27.84593
1.284                  0.9908884       -27.98029
1.288                  0.9908331       -28.11557
1.292                  0.9907784       -28.25176
1.296                  0.9907241       -28.38888
1.3                      0.99067       -28.52695
1.304                  0.9906159       -28.66599
1.308                  0.9905613       -28.80602
1.312                  0.9905062       -28.94703
1.316                  0.9904502       -29.08906
1.32                   0.9903931       -29.23211
1.324                  0.9903347       -29.37619
1.328                  0.9902745       -29.52133
1.332                  0.9902124       -29.66752
1.336                  0.9901479       -29.81479
1.34                   0.9900811       -29.96313
1.344                  0.9900111       -30.11258
1.348                  0.9899381       -30.26312
1.352                  0.9898617       -30.41477
1.356                  0.9897814       -30.56755
1.36                    0.989697       -30.72145
1.364                  0.9896083       -30.87648
1.368                  0.9895149       -31.03265
1.372                  0.9894163       -31.18996
1.376                  0.9893123       -31.34843
1.38                   0.9892028       -31.50805
1.384                  0.9890874       -31.66882
1.388                  0.9889657       -31.83076
1.392                  0.9888374       -31.99387
1.396                  0.9887024       -32.15814
1.4                    0.9885603       -32.32357
1.404                  0.9884106       -32.49017
1.408                  0.9882534       -32.65794
1.412                  0.9880881       -32.82688
1.416                  0.9879147       -32.99699
1.42                   0.9877328       -33.16827
1.424                  0.9875422        -33.3407
1.428                  0.9873427       -33.51431
1.432                   0.987134       -33.68907
1.436                  0.9869159         -33.865
1.44                   0.9866883       -34.04208
1.444                  0.9864509       -34.22031
1.448                  0.9862036       -34.39969
1.452                  0.9859459       -34.58022
1.456                  0.9856782       -34.76189
1.46                   0.9853998        -34.9447
1.464                   0.985111       -35.12864
1.468                  0.9848113       -35.31372
1.472                  0.9845011       -35.49992
1.476                  0.9841798       -35.68724
1.48                   0.9838475       -35.87569
1.484                  0.9835041       -36.06525
1.488                  0.9831496       -36.25592
1.492                   0.982784        -36.4477
1.496                   0.982407       -36.64059
1.5                    0.9820188       -36.83458
1.504                  0.9816194       -37.02968
1.508                  0.9812088       -37.22587
1.512                  0.9807868       -37.42316
1.516                  0.9803537       -37.62155
1.52                   0.9799096       -37.82103
1.524                  0.9794541       -38.02162
1.528                  0.9789877        -38.2233
1.532                  0.9785103       -38.42608
1.536                  0.9780219       -38.62997
1.54                   0.9775229       -38.83496
1.544                  0.9770131       -39.04105
1.548                  0.9764926       -39.24827
1.552                  0.9759619       -39.45659
1.556                  0.9754206       -39.66606
1.56                   0.9748693       -39.87665
1.564                  0.9743078       -40.08838
1.568                  0.9737363       -40.30127
1.572                  0.9731551       -40.51532
1.576                  0.9725644       -40.73054
1.58                    0.971964       -40.94696
1.584                  0.9713545       -41.16457
1.588                  0.9707359        -41.3834
1.592                  0.9701082       -41.60347
1.596                  0.9694718       -41.82478
1.6                    0.9688267       -42.04736
1.604                   0.968173       -42.27125
1.608                  0.9675112       -42.49644
1.612                   0.966841       -42.72297
1.616                  0.9661629       -42.95086
1.62                   0.9654768       -43.18013
1.624                  0.9647832       -43.41082
1.628                  0.9640818       -43.64295
1.632                  0.9633728       -43.87655
1.636                  0.9626567       -44.11166
1.64                    0.961933       -44.34831
1.644                  0.9612023       -44.58653
1.648                  0.9604644       -44.82634
1.652                  0.9597194       -45.06781
1.656                  0.9589675       -45.31095
1.66                   0.9582085       -45.55581
1.664                  0.9574425       -45.80244
1.668                  0.9566694       -46.05087
1.672                  0.9558895       -46.30115
1.676                  0.9551023       -46.55332
1.68                   0.9543083       -46.80742
1.684                  0.9535069       -47.06351
1.688                  0.9526983       -47.32162
1.692                  0.9518822       -47.58183
1.696                  0.9510584       -47.84416
1.7                     0.950227       -48.10867
1.704                  0.9493876       -48.37542
1.708                  0.9485399       -48.64447
1.712                  0.9476839       -48.91584
1.716                  0.9468191       -49.18963
1.72                   0.9459453       -49.46585
1.724                  0.9450621        -49.7446
1.728                  0.9441693        -50.0259
1.732                  0.9432662       -50.30984
1.736                  0.9423528       -50.59645
1.74                   0.9414282       -50.88582
1.744                  0.9404923       -51.17797
1.748                  0.9395445       -51.47299
1.752                  0.9385841       -51.77095
1.756                  0.9376107       -52.07187
1.76                   0.9366237       -52.37584
1.764                  0.9356224       -52.68293
1.768                  0.9346063       -52.99317
1.772                  0.9335746       -53.30664
1.776                  0.9325266        -53.6234
1.78                   0.9314615       -53.94352
1.784                  0.9303788       -54.26704
1.788                  0.9292775       -54.59404
1.792                  0.9281569       -54.92456
1.796                   0.927016       -55.25869
1.8                     0.925854       -55.59648
1.804                  0.9246703       -55.93797
1.808                  0.9234636       -56.28325
1.812                  0.9222331       -56.63236
1.816                  0.9209779       -56.98537
1.82                   0.9196971       -57.34232
1.824                  0.9183894       -57.70329
1.828                  0.9170541       -58.06834
1.832                    0.91569       -58.43749
1.836                  0.9142963       -58.81083
1.84                   0.9128714       -59.18843
1.844                  0.9114147       -59.57031
1.848                   0.909925       -59.95653
1.852                  0.9084011       -60.34716
1.856                   0.906842       -60.74225
1.86                   0.9052465       -61.14184
1.864                  0.9036133         -61.546
1.868                  0.9019417       -61.95475
1.872                  0.9002302       -62.36817
1.876                  0.8984775        -62.7863
1.88                   0.8966829        -63.2092
1.884                  0.8948449       -63.63691
1.888                  0.8929626       -64.06945
1.892                  0.8910346       -64.50691
1.896                  0.8890598       -64.94933
1.9                     0.887037       -65.39672
1.904                  0.8849653       -65.84918
1.908                  0.8828433       -66.30669
1.912                    0.88067       -66.76936
1.916                  0.8784443       -67.23718
1.92                   0.8761649       -67.71024
1.924                   0.873831       -68.18855
1.928                  0.8714413       -68.67215
1.932                  0.8689947       -69.16111
1.936                  0.8664904       -69.65545
1.94                   0.8639272        -70.1552
1.944                   0.861304       -70.66045
1.948                    0.85862       -71.17118
1.952                  0.8558742       -71.68749
1.956                  0.8530656       -72.20937
1.96                   0.8501932       -72.73691
1.964                  0.8472563       -73.27011
1.968                  0.8442539       -73.80904
1.972                  0.8411853       -74.35372
1.976                  0.8380496       -74.90421
1.98                   0.8348461       -75.46057
1.984                  0.8315741       -76.02279
1.988                  0.8282328       -76.59096
1.992                  0.8248216       -77.16512
1.996                  0.8213399       -77.74531
2                      0.8177871       -78.33157
2.004                  0.8141626       -78.92397
2.008                   0.810466       -79.52255
2.012                  0.8066968       -80.12735
2.016                  0.8028546       -80.73843
2.02                    0.798939       -81.35587
2.024                  0.7949497       -81.97968
2.028                  0.7908865       -82.60995
2.032                  0.7867489       -83.24674
2.036                  0.7825371        -83.8901
2.04                   0.7782508        -84.5401
2.044                  0.7738899       -85.19681
2.048                  0.7694543       -85.86031
2.052                  0.7649442       -86.53066
2.056                  0.7603596       -87.20792
2.06                   0.7557006       -87.89222
2.064                  0.7509674       -88.58359
2.068                  0.7461604       -89.28214
2.072                  0.7412797       -89.98797
2.076                  0.7363257       -90.70116
2.08                   0.7312991       -91.42182
2.084                  0.7262001       -92.15004
2.088                  0.7210292       -92.88594
2.092                  0.7157871       -93.62962
2.096                  0.7104746       -94.38123
2.1                    0.7050924       -95.14086
2.104                  0.6996411       -95.90864
2.108                  0.6941218       -96.68472
2.112                  0.6885353       -97.46927
2.116                  0.6828826       -98.26239
2.12                   0.6771649       -99.06427
2.124                  0.6713832       -99.87505
2.128                  0.6655388       -100.6949
2.132                  0.6596329       -101.5241
2.136                   0.653667       -102.3627
2.14                   0.6476424        -103.211
2.144                  0.6415606       -104.0691
2.148                  0.6354233       -104.9373
2.152                   0.629232       -105.8159
2.156                  0.6229885        -106.705
2.16                   0.6166949       -107.6049
2.164                  0.6103526       -108.5159
2.168                   0.603964       -109.4382
2.172                  0.5975309       -110.3722
2.176                  0.5910558       -111.3181
2.18                   0.5845407       -112.2763
2.184                  0.5779879       -113.2471
2.188                  0.5713999       -114.2308
2.192                  0.5647794       -115.2279
2.196                  0.5581289       -116.2386
2.2                    0.5514511       -117.2635
2.204                   0.544749       -118.3028
2.208                  0.5380253       -119.3572
2.212                  0.5312832       -120.4269
2.216                   0.524526       -121.5125
2.22                    0.517757       -122.6146
2.224                  0.5109793       -123.7335
2.228                  0.5041968       -124.8699
2.232                  0.4974129       -126.0242
2.236                  0.4906316       -127.1972
2.24                   0.4838567       -128.3894
2.244                  0.4770924       -129.6015
2.248                  0.4703429        -130.834
2.252                  0.4636125       -132.0877
2.256                  0.4569058       -133.3632
2.26                   0.4502275       -134.6614
2.264                  0.4435824       -135.9828
2.268                  0.4369757       -137.3284
2.272                  0.4304124       -138.6988
2.276                  0.4238981       -140.0949
2.28                   0.4174382       -141.5175
2.284                  0.4110385       -142.9673
2.288                   0.404705       -144.4452
2.292                  0.3984439        -145.952
2.296                  0.3922613       -147.4886
2.3                     0.386164       -149.0557
2.304                  0.3801585       -150.6541
2.308                  0.3742518       -152.2847
2.312                  0.3684509        -153.948
2.316                  0.3627633       -155.6449
2.32                   0.3571961       -157.3758
2.324                  0.3517571       -159.1415
2.328                  0.3464539       -160.9423
2.332                  0.3412944       -162.7787
2.336                  0.3362864       -164.6508
2.34                    0.331438       -166.5589
2.344                  0.3267571        -168.503
2.348                  0.3222517       -170.4827
2.352                  0.3179298       -172.4979