! TOUCHSTONE file generated by CST MICROWAVE STUDIO
! Date and time: Tue Jun  7 22:11:15 2022
! Project name: AppElm_antenne_patch_FR4.cst
! Parameters = {L=45; W=58.5; e=0.035; h=1.6; lambda=0.190476; ls=120; w0=1.6; w1=0.47975; ws=120; y0=20; y1=23.81}
! Header version: 2018
! Port assignment regex: !\s*Touchstone port\s*([0-9]+)\s*=\s*(CST MWS port|CST DS port)\s*([0-9]+|Zmin|Zmax)\s*\(\"(.*)\"\)(\s*mode\s*([0-9]+))?.*
! Touchstone port assignment:
! Touchstone port 1 = CST MWS port 1 ("")
# GHz S MA R 50
0                      0.9888682              -0
0.004                  0.9895253       -9.925211
0.008                  0.9914071       -19.76327
0.012                  0.9942585       -29.43131
0.016                  0.9976979       -38.85428
0.02                    1.001273       -47.96742
0.024                   1.004525       -56.71739
0.028                   1.007051        -65.0624
0.032                   1.008554       -72.97167
0.036                   1.008883       -80.42475
0.04                    1.008044       -87.41094
0.044                   1.006196       -93.92902
0.048                   1.003629       -99.98718
0.052                   1.000722       -105.6031
0.056                   0.997887       -110.8039
0.06                   0.9955131       -115.6248
0.064                  0.9939103       -120.1078
0.068                  0.9932668       -124.2988
0.072                  0.9936231        -128.244
0.076                  0.9948732       -131.9867
0.08                   0.9967846       -135.5636
0.084                  0.9990395        -139.003
0.088                   1.001286       -142.3234
0.092                   1.003193       -145.5341
0.096                   1.004496       -148.6364
0.1                     1.005033       -151.6261
0.104                   1.004763        -154.496
0.108                   1.003769       -157.2388
0.112                   1.002238       -159.8492
0.116                   1.000431       -162.3267
0.12                   0.9986418       -164.6761
0.124                  0.9971508       -166.9083
0.128                  0.9961807       -169.0393
0.132                  0.9958643       -171.0887
0.136                  0.9962253       -173.0772
0.14                   0.9971791       -175.0239
0.144                  0.9985495       -176.9443
0.148                   1.000101       -178.8482
0.152                   1.001578        179.2606
0.156                   1.002747        177.3843
0.16                    1.003434          175.53
0.164                   1.003544         173.708
0.168                    1.00308        171.9294
0.172                   1.002136        170.2042
0.176                   1.000879        168.5396
0.18                   0.9995242        166.9382
0.184                  0.9982952        165.3976
0.188                  0.9973899        163.9106
0.192                  0.9969486        162.4662
0.196                  0.9970309        161.0509
0.2                    0.9976088        159.6513
0.204                  0.9985725         158.256
0.208                  0.9997518        156.8569
0.212                   1.000945        155.4507
0.216                   1.001954        154.0392
0.22                    1.002615         152.628
0.224                   1.002828        151.2261
0.228                   1.002566        149.8438
0.232                   1.001882        148.4909
0.236                     1.0009        147.1754
0.24                   0.9997873        145.9014
0.244                  0.9987336        144.6692
0.248                   0.997914        143.4745
0.252                  0.9974621        142.3093
0.256                  0.9974473        141.1634
0.26                   0.9978642        140.0258
0.264                   0.998634        138.8866
0.268                  0.9996202        137.7386
0.272                   1.000652        136.5787
0.276                   1.001553        135.4076
0.28                    1.002174        134.2303
0.284                   1.002414        133.0546
0.288                   1.002237        131.8897
0.292                   1.001678        130.7449
0.296                   1.000838        129.6278
0.3                     0.999861        128.5432
0.304                  0.9989158        127.4919
0.308                  0.9981635         126.471
0.312                    0.99773         125.474
0.316                  0.9976865        124.4918
0.32                   0.9980362        123.5149
0.324                  0.9987148         122.534
0.328                  0.9996019        121.5428
0.332                   1.000543        120.5378
0.336                   1.001377        119.5197
0.34                     1.00196        118.4929
0.344                   1.002197        117.4645
0.348                   1.002048        116.4433
0.352                   1.001543        115.4379
0.356                   1.000771        114.4558
0.36                   0.9998655        113.5017
0.364                  0.9989849        112.5767
0.368                   0.998281        111.6783
0.372                  0.9978747        110.8005
0.376                  0.9978351        109.9349
0.38                   0.9981673        109.0726
0.384                  0.9988114        108.2048
0.388                  0.9996538        107.3254
0.392                   1.000547        106.4313
0.396                   1.001337        105.5231
0.4                     1.001886         104.605
0.404                   1.002101        103.6839
0.408                   1.001946        102.7682
0.412                   1.001449        101.8666
0.416                   1.000697        100.9862
0.42                   0.9998217        100.1316
0.424                  0.9989758        99.30378
0.428                  0.9983069        98.50016
0.432                  0.9979323        97.71494
0.436                  0.9979168        96.93993
0.44                   0.9982628        96.16623
0.444                  0.9989087        95.38557
0.448                  0.9997409        94.59196
0.452                   1.000613        93.78258
0.456                   1.001373        92.95831
0.46                    1.001887         92.1235
0.464                   1.002065        91.28516
0.468                   1.001877        90.45181
0.472                   1.001356         89.6319
0.476                   1.000591        88.83244
0.48                   0.9997164        88.05773
0.484                  0.9988861        87.30857
0.488                  0.9982459        86.58206
0.492                  0.9979087        85.87208
0.496                  0.9979345        85.17038
0.5                     0.998319        84.46798
0.504                  0.9989944        83.75673
0.508                  0.9998413        83.03096
0.512                    1.00071        82.28819
0.516                   1.001448        81.52976
0.52                    1.001923        80.76044
0.524                   1.002052        79.98762
0.528                   1.001811        79.22001
0.532                    1.00124        78.46614
0.536                   1.000439        77.73285
0.54                   0.9995472        77.02412
0.544                  0.9987226        76.34025
0.548                  0.9981113        75.67785
0.552                  0.9978223        75.03027
0.556                  0.9979081        74.38883
0.56                   0.9983543        73.74439
0.564                  0.9990827        73.08892
0.568                  0.9999645        72.41698
0.572                   1.000843        71.72664
0.576                   1.001563        71.01991
0.58                    1.001994        70.30216
0.584                   1.002061         69.5814
0.588                   1.001747         68.8667
0.592                   1.001107        68.16672
0.596                   1.000251         67.4881
0.6                    0.9993308        66.83441
0.604                  0.9985088        66.20528
0.608                   0.997932        65.59654
0.612                   0.997705        65.00082
0.616                  0.9978701         64.4089
0.62                   0.9983998         63.8113
0.624                  0.9992014        63.20005
0.628                   1.000133        62.57012
0.632                   1.001028        61.92029
0.636                   1.001728        61.25336
0.64                    1.002106        60.57562
0.644                   1.002092         59.8958
0.648                   1.001686        59.22347
0.652                   1.000957        58.56743
0.656                   1.000032        57.93413
0.66                   0.9990744        57.32651
0.664                  0.9982549        56.74336
0.668                  0.9977214        56.17953
0.672                  0.9975717         55.6267
0.676                  0.9978356        55.07492
0.68                   0.9984685         54.5144
0.684                  0.9993593        53.93725
0.688                    1.00035        53.33895
0.692                   1.001263        52.71918
0.696                   1.001934        52.08178
0.7                     1.002242        51.43414
0.704                   1.002128        50.78585
0.708                   1.001607        50.14707
0.712                    1.00077        49.52675
0.716                  0.9997615        48.93101
0.72                   0.9987611        48.36201
0.724                  0.9979479        47.81748
0.728                  0.9974697        47.29103
0.732                  0.9974159        46.77323
0.736                  0.9977995         46.2533
0.74                   0.9985547        45.72107
0.744                  0.9995487        45.16885
0.748                   1.000604        44.59284
0.752                   1.001531        43.99377
0.756                   1.002162        43.37679
0.76                     1.00238        42.75054
0.764                   1.002141        42.12568
0.768                   1.001483        41.51297
0.772                   1.000519        40.92144
0.776                  0.9994161        40.35676
0.78                    0.998372         39.8201
0.784                  0.9975743        39.30785
0.788                  0.9971697        38.81216
0.792                  0.9972349        38.32229
0.796                  0.9977626        37.82654
0.8                    0.9986614        37.31443
0.804                  0.9997723        36.77857
0.808                   1.000896        36.21606
0.812                    1.00183          35.629
0.816                   1.002404        35.02406
0.82                    1.002509        34.41136
0.824                   1.002121        33.80271
0.828                   1.001302        33.20952
0.832                   1.000193        32.64081
0.836                  0.9989888        32.10159
0.84                   0.9979051        31.59178
0.844                  0.9971383        31.10614
0.848                  0.9968311        30.63511
0.852                   0.997044        30.16647
0.856                  0.9977443        29.68754
0.86                   0.9988097        29.18756
0.864                   1.000051        28.65966
0.868                   1.001246        28.10211
0.872                   1.002177        27.51864
0.876                   1.002672        26.91774
0.88                    1.002638        26.31121
0.884                    1.00207        25.71213
0.888                   1.001064        25.13253
0.892                  0.9997929        24.58131
0.896                  0.9984815        24.06255
0.9                    0.9973658        23.57463
0.904                  0.9966501        23.11037
0.908                  0.9964695        22.65819
0.912                  0.9968639        22.20419
0.916                  0.9977684        21.73471
0.92                    0.999025         21.2388
0.924                    1.00041        20.71035
0.928                   1.001673        20.14912
0.932                   1.002585         19.5608
0.936                   1.002976        18.95602
0.94                    1.002766        18.34848
0.944                   1.001984        17.75263
0.948                    1.00076        17.18111
0.952                  0.9993066        16.64251
0.956                  0.9978821         16.1397
0.96                   0.9967445        15.66914
0.964                  0.9961042         15.2213
0.968                   0.996085        14.78228
0.972                  0.9966993        14.33632
0.976                   0.997844        13.86869
0.98                   0.9993178        13.36849
0.984                   1.000858         12.8306
0.988                   1.002185        12.25667
0.992                   1.003056        11.65477
0.996                   1.003306          11.038
1                       1.002878        10.42223
1.004                   1.001836        9.823405
1.008                   1.000357        9.254719
1.012                  0.9986968         8.72424
1.016                  0.9971524        8.233277
1.02                   0.9960052        7.775894
1.024                  0.9954702        7.339754
1.028                  0.9956544        6.908248
1.032                  0.9965355        6.463507
1.036                  0.9979632        5.989758
1.04                   0.9996857        5.476269
1.044                   1.001394        4.919333
1.048                   1.002777        4.322922
1.052                    1.00358        3.697976
1.056                   1.003644        3.060512
1.06                    1.002944        2.428892
1.064                   1.001589          1.8207
1.068                  0.9998069        1.249646
1.072                    0.99791       0.7230144
1.076                  0.9962379       0.2400959
1.08                   0.9950977      -0.2080103
1.084                  0.9947064      -0.6370475
1.088                  0.9951486       -1.066848
1.092                  0.9963575        -1.51767
1.096                   0.998125       -2.006381
1.1                     1.000138       -2.543294
1.104                   1.002034       -3.130279
1.108                   1.003467       -3.760447
1.112                   1.004167       -4.419369
1.116                   1.003992        -5.08758
1.12                    1.002951       -5.743742
1.124                   1.001211       -6.368431
1.128                  0.9990653       -6.947432
1.132                  0.9968911       -7.474559
1.136                  0.9950797       -7.953113
1.14                   0.9939673       -8.395714
1.144                  0.9937706       -8.822318
1.148                  0.9945436       -9.256666
1.152                   0.996163       -9.721845
1.156                  0.9983487        -10.2359
1.16                    1.000712       -10.80845
1.164                   1.002827       -11.43898
1.168                   1.004304       -12.11691
1.172                    1.00486       -12.82352
1.176                   1.004371       -13.53504
1.18                    1.002896       -14.22662
1.184                    1.00067       -14.87652
1.188                  0.9980721       -15.47002
1.192                  0.9955582       -16.00238
1.196                  0.9935843       -16.48024
1.2                    0.9925221         -16.921
1.204                  0.9925858          -17.35
1.208                  0.9937889        -17.7959
1.212                  0.9959352       -18.28532
1.216                  0.9986518       -18.83767
1.22                    1.001455       -19.46159
1.224                   1.003837       -20.15342
1.228                   1.005354       -20.89789
1.232                   1.005709       -21.67076
1.236                   1.004799       -22.44282
1.24                    1.002748       -23.18459
1.244                  0.9998817        -23.8714
1.248                  0.9966866       -24.48777
1.252                  0.9937249       -25.03083
1.256                  0.9915379       -25.51161
1.26                   0.9905441       -25.95384
1.264                  0.9909559       -26.39006
1.268                  0.9927325       -26.85557
1.272                  0.9955808       -27.38171
1.276                  0.9990042       -27.98974
1.28                    1.002391       -28.68701
1.284                   1.005124       -29.46569
1.288                   1.006685        -30.3043
1.292                   1.006752       -31.17126
1.296                   1.005254       -32.02991
1.3                     1.002394       -32.84445
1.304                   0.998623       -33.58581
1.308                   0.994576       -34.23719
1.312                  0.9909648       -34.79797
1.316                  0.9884539       -35.28513
1.32                   0.9875339       -35.73135
1.324                  0.9884196       -36.17952
1.328                  0.9909986       -36.67466
1.332                  0.9948421       -37.25515
1.336                  0.9992779       -37.94526
1.34                    1.003509        -38.7508
1.344                   1.006753       -39.65834
1.348                   1.008381       -40.63769
1.352                   1.008022        -41.6468
1.356                   1.005637       -42.63814
1.36                    1.001542       -43.56602
1.364                  0.9963632       -44.39415
1.368                  0.9909587       -45.10264
1.372                   0.986274       -45.69328
1.376                  0.9831766       -46.19156
1.38                   0.9822861       -46.64391
1.384                  0.9838402        -47.1099
1.388                  0.9876297       -47.65076
1.392                  0.9930215       -48.31712
1.396                  0.9990671       -49.13918
1.4                     1.004668       -50.12153
1.404                   1.008765       -51.24293
1.408                   1.010521       -52.46026
1.412                   1.009458       -53.71509
1.416                   1.005556       -54.94196
1.42                   0.9992766       -56.07773
1.424                  0.9915249       -57.07159
1.428                  0.9835319       -57.89533
1.432                  0.9766673       -58.55179
1.436                  0.9721982       -59.07934
1.44                   0.9710337       -59.54885
1.444                  0.9735137       -60.05215
1.448                   0.979303       -60.68392
1.452                  0.9874226       -61.52206
1.456                  0.9964137        -62.6126
1.46                    1.004587       -63.96266
1.464                   1.010305       -65.54114
1.468                   1.012238       -67.28499
1.472                   1.009581       -69.10811
1.476                   1.002197       -70.91148
1.48                   0.9906948       -72.59484
1.484                  0.9764144       -74.07046
1.488                  0.9613118       -75.28039
1.492                  0.9477128       -76.21577
1.496                    0.93793        -76.9335
1.5                    0.9337839       -77.56134
1.504                  0.9361311       -78.28307
1.508                  0.9445513       -79.30353
1.512                  0.9573081       -80.80595
1.516                  0.9715904       -82.91934
1.52                   0.9839286       -85.70643
1.524                  0.9906464       -89.17034
1.528                  0.9882473       -93.27078
1.532                  0.9736974       -97.94093
1.536                  0.9446091       -103.1002
1.54                   0.8993477       -108.6612
1.544                  0.8370799       -114.5317
1.548                  0.7577822       -120.6098
1.552                  0.6622191       -126.7693
1.556                  0.5519046       -132.8232
1.56                   0.4290714       -138.4141
1.564                  0.2967574       -142.5994
1.568                  0.1598661       -141.2798
1.572                 0.05111444       -85.12582
1.576                  0.1466142       -14.67506
1.58                   0.2835836       -12.11043
1.584                  0.4168406       -16.08714
1.588                  0.5410238       -21.65851
1.592                  0.6529543       -27.76421
1.596                  0.7502797       -34.01717
1.6                     0.831361        -40.2199
1.604                  0.8953029       -46.24179
1.608                  0.9419984       -51.97797
1.612                  0.9721587        -57.3333
1.616                  0.9873169       -62.21667
1.62                   0.9897914       -66.54187
1.624                  0.9825988       -70.23408
1.628                  0.9692864       -73.24264
1.632                  0.9536654       -75.55915
1.636                  0.9394235       -77.23664
1.64                   0.9296488        -78.4005
1.644                  0.9263585       -79.24009
1.648                   0.930187       -79.97603
1.652                  0.9403689       -80.81325
1.656                  0.9550351       -81.89941
1.66                   0.9717076       -83.30537
1.664                  0.9878231       -85.02876
1.668                   1.001161       -87.01154
1.672                   1.010126       -89.16116
1.676                   1.013892       -91.36917
1.68                    1.012433       -93.52574
1.684                   1.006475       -95.53152
1.688                  0.9973576       -97.30846
1.692                  0.9868415       -98.80999
1.696                  0.9768408       -100.0298
1.7                    0.9691212        -101.006
1.704                  0.9649992       -101.8173
1.708                  0.9651124       -102.5694
1.712                  0.9693212       -103.3727
1.716                  0.9767737       -104.3201
1.72                   0.9861103       -105.4702
1.724                  0.9957444       -106.8402
1.728                   1.004148       -108.4092
1.732                   1.010087       -110.1267
1.736                   1.012787       -111.9234
1.74                    1.012008       -113.7225
1.744                    1.00806       -115.4502
1.748                   1.001731       -117.0447
1.752                   0.994164       -118.4649
1.756                  0.9866814       -119.6975
1.76                   0.9805665       -120.7604
1.764                  0.9768486       -121.7011
1.768                  0.9761209       -122.5887
1.772                  0.9784409       -123.5005
1.776                  0.9833358       -124.5067
1.78                   0.9899106       -125.6573
1.784                  0.9970291       -126.9744
1.788                    1.00352       -128.4514
1.792                   1.008369       -130.0566
1.796                    1.01087        -131.741
1.8                      1.01071       -133.4459
1.804                   1.008008       -135.1119
1.808                   1.003279        -136.687
1.812                  0.9973531       -138.1336
1.816                  0.9912457       -139.4353
1.82                   0.9859914       -140.5994
1.824                  0.9824713       -141.6576
1.828                  0.9812593       -142.6604
1.832                  0.9825231       -143.6679
1.836                  0.9860002       -144.7383
1.84                   0.9910582       -145.9168
1.844                  0.9968201       -147.2285
1.848                   1.002323       -148.6747
1.852                   1.006683       -150.2357
1.856                   1.009229       -151.8743
1.86                    1.009598       -153.5435
1.864                   1.007784       -155.1928
1.868                   1.004124       -156.7758
1.872                  0.9992516       -158.2567
1.876                  0.9939893        -159.616
1.88                   0.9892215       -160.8542
1.884                  0.9857459       -161.9924
1.888                  0.9841365       -163.0693
1.892                  0.9846432       -164.1344
1.896                  0.9871495       -165.2385
1.9                    0.9912011       -166.4243
1.904                  0.9960941       -167.7191
1.908                   1.001004       -169.1306
1.912                   1.005128       -170.6471
1.916                    1.00781       -172.2403
1.92                    1.008643        -173.871
1.924                   1.007522       -175.4949
1.928                   1.004655        -177.069
1.932                   1.000532       -178.5582
1.936                  0.9958423       -179.9403
1.94                   0.9913691        178.7897
1.944                  0.9878602        177.6183
1.948                  0.9858998        176.5154
1.952                   0.985806        175.4389
1.956                  0.9875753        174.3428
1.96                    0.990887        173.1856
1.964                  0.9951647         171.938
1.968                  0.9996824        170.5873
1.972                   1.003691        169.1386
1.976                   1.006539        167.6135
1.98                    1.007776        166.0452
1.984                   1.007219        164.4736
1.988                   1.004971        162.9394
1.992                   1.001411        161.4778
1.996                    0.99713        160.1133
2                      0.9928407        158.8555
2.004                  0.9892591         157.697
2.008                  0.9869853        156.6139
2.012                  0.9863968        155.5695
2.016                  0.9875819        154.5213
2.02                   0.9903252        153.4284
2.024                  0.9941481        152.2592
2.028                  0.9983977        150.9968
2.032                   1.002361        149.6411
2.036                   1.005383         148.208
2.04                    1.006973        146.7262
2.044                   1.006876        145.2325
2.048                   1.005114         143.766
2.052                   1.001977        142.3623
2.056                  0.9979821        141.0484
2.06                   0.9937895        139.8377
2.064                  0.9900998        138.7276
2.068                   0.987533        137.6991
2.072                  0.9865217        136.7198
2.076                  0.9872322        135.7491
2.08                   0.9895346        134.7462
2.084                  0.9930272        133.6773
2.088                  0.9971096        132.5216
2.092                    1.00109        131.2743
2.096                   1.004302         129.947
2.1                      1.00621        128.5648
2.104                   1.006499        127.1622
2.108                   1.005115        125.7777
2.112                   1.002279        124.4479
2.116                   0.998449        123.2022
2.12                   0.9942549        122.0576
2.124                  0.9903939        121.0158
2.128                  0.9875161        120.0618
2.132                  0.9861103         119.166
2.136                  0.9864154        118.2892
2.14                   0.9883757        117.3896
2.144                  0.9916502        116.4307
2.148                  0.9956742        115.3876
2.152                  0.9997595        114.2514
2.156                   1.003213        113.0298
2.16                     1.00545        111.7452
2.164                   1.006086        110.4308
2.168                   1.004999        109.1254
2.172                   1.002347        107.8674
2.176                  0.9985457        106.6894
2.18                   0.9942094        105.6125
2.184                  0.9900522        104.6424
2.188                  0.9867714        103.7677
2.192                  0.9849267        102.9611
2.196                  0.9848374         102.183
2.2                    0.9865216        101.3897
2.204                    0.98969        100.5406
2.208                  0.9937965        99.60597
2.212                  0.9981357        98.57206
2.216                   1.001963         97.4427
2.22                    1.004617        96.23813
2.224                    1.00563        94.99125
2.228                   1.004793        93.74253
2.232                   1.002201        92.53392
2.236                  0.9982357        91.40272
2.24                   0.9935132        90.37554
2.244                  0.9887946        89.46349
2.248                  0.9848615        88.65913
2.252                  0.9823825         87.9365
2.256                  0.9817913         87.2548
2.26                   0.9832016        86.56536
2.264                  0.9863805        85.82075
2.268                  0.9907847        84.98341
2.272                   0.995655        84.03243
2.276                   1.000145        82.96652
2.28                    1.003463        81.80361
2.284                   1.004993        80.57746
2.288                     1.0044        79.33244
2.292                   1.001679        78.11718
2.296                  0.9971706        76.97769
2.3                    0.9915173        75.95033
2.304                  0.9855795        75.05532
2.308                  0.9803042        74.29176
2.312                  0.9765691        73.63571
2.316                  0.9750231        73.04224
2.32                   0.9759574        72.45253
2.324                  0.9792355        71.80434
2.328                  0.9843038        71.04369
2.332                  0.9902783        70.13471
2.336                  0.9960895        69.06543
2.34                    1.000654         67.8489
2.344                   1.003042         66.5205
2.348                   1.002622        65.13266
2.352                  0.9991606        63.74797