! TOUCHSTONE file generated by CST MICROWAVE STUDIO
! Date and time: Tue Jun  7 22:11:17 2022
! Project name: AppElm_antenne_patch_FR4.cst
! Parameters = {L=45; W=58.5; e=0.035; h=1.6; lambda=0.190476; ls=120; w0=1.6; w1=0.53305; ws=120; y0=20; y1=23.81}
! Header version: 2018
! Port assignment regex: !\s*Touchstone port\s*([0-9]+)\s*=\s*(CST MWS port|CST DS port)\s*([0-9]+|Zmin|Zmax)\s*\(\"(.*)\"\)(\s*mode\s*([0-9]+))?.*
! Touchstone port assignment:
! Touchstone port 1 = CST MWS port 1 ("")
# GHz S MA R 50
0                      0.9892707              -0
0.004                  0.9899115       -9.930253
0.008                  0.9917456       -19.77341
0.012                  0.9945217        -29.4466
0.016                  0.9978643       -38.87479
0.02                    1.001329       -47.99318
0.024                   1.004465       -56.74835
0.028                   1.006881       -65.09847
0.032                   1.008291       -73.01279
0.036                   1.008551       -80.47098
0.04                    1.007675       -87.46256
0.044                   1.005828        -93.9867
0.048                   1.003302       -100.0521
0.052                   1.000472        -105.677
0.056                  0.9977422        -110.889
0.06                   0.9954915       -115.7237
0.064                  0.9940148       -120.2234
0.068                   0.993484       -124.4338
0.072                  0.9939252       -128.4006
0.076                  0.9952202       -132.1664
0.08                     0.99713       -135.7669
0.084                  0.9993371       -139.2292
0.088                   1.001496       -142.5709
0.092                   1.003287       -145.8006
0.096                   1.004461       -148.9192
0.1                     1.004875       -151.9224
0.104                   1.004507       -154.8032
0.108                   1.003452       -157.5549
0.112                   1.001907       -160.1733
0.116                   1.000136       -162.6588
0.12                   0.9984271       -165.0173
0.124                  0.9970495       -167.2607
0.128                  0.9962082       -169.4055
0.132                  0.9960158       -171.4715
0.136                  0.9964767        -173.479
0.14                   0.9974901       -175.4465
0.144                  0.9988703       -177.3882
0.148                    1.00038        -179.313
0.152                   1.001771        178.7767
0.156                   1.002823        176.8838
0.16                     1.00338         175.016
0.164                   1.003369        173.1836
0.168                   1.002811        171.3971
0.172                   1.001816        169.6661
0.176                    1.00056        167.9963
0.18                   0.9992577        166.3893
0.184                  0.9981242        164.8417
0.188                  0.9973424        163.3452
0.192                   0.997032        161.8883
0.196                  0.9972311        160.4578
0.2                    0.9978919        159.0408
0.204                  0.9988908        157.6267
0.208                   1.000052        156.2089
0.212                   1.001176        154.7853
0.216                   1.002077        153.3585
0.22                    1.002609        151.9351
0.224                   1.002693        150.5242
0.228                   1.002324        149.1358
0.232                   1.001574        147.7792
0.236                   1.000576         146.461
0.24                    0.999502        145.1844
0.244                  0.9985351        143.9482
0.248                  0.9978362        142.7472
0.252                  0.9975189        141.5728
0.256                  0.9976295        140.4147
0.26                   0.9981412        139.2623
0.264                  0.9989594        138.1067
0.268                   0.999939        136.9421
0.272                   1.000911        135.7665
0.276                   1.001708        134.5819
0.28                      1.0022         133.394
0.284                   1.002306        132.2109
0.288                   1.002015        131.0418
0.292                    1.00138        129.8953
0.296                   1.000514        128.7778
0.3                    0.9995683         127.693
0.304                  0.9987045        126.6402
0.308                  0.9980705        125.6156
0.312                  0.9977721        124.6118
0.316                   0.997857        123.6199
0.32                   0.9983059        122.6304
0.324                  0.9990372        121.6354
0.328                  0.9999215        120.6294
0.332                   1.000805        119.6106
0.336                   1.001535        118.5809
0.34                    1.001988        117.5454
0.344                   1.002089        116.5115
0.348                   1.001823         115.488
0.352                    1.00124        114.4829
0.356                   1.000441        113.5025
0.36                   0.9995673        112.5502
0.364                  0.9987703        111.6257
0.368                  0.9981879        110.7254
0.372                  0.9979205        109.8427
0.376                  0.9980127         108.969
0.38                   0.9984465        108.0957
0.384                  0.9991443        107.2153
0.388                  0.9999831        106.3227
0.392                   1.000816        105.4162
0.396                   1.001499        104.4978
0.4                     1.001913        103.5725
0.404                   1.001989        102.6477
0.408                   1.001713        101.7316
0.412                   1.001136         100.832
0.416                   1.000358        99.95502
0.42                   0.9995162         99.1038
0.424                  0.9987566        98.27804
0.428                  0.9982126        97.47402
0.432                  0.9979787        96.68516
0.436                  0.9980956        95.90324
0.44                    0.998542        95.11979
0.444                  0.9992384        94.32764
0.448                   1.000062        93.52207
0.452                   1.000869        92.70174
0.456                   1.001516        91.86876
0.46                    1.001892        91.02839
0.464                    1.00193        90.18797
0.468                   1.001624        89.35577
0.472                   1.001028        88.53949
0.476                   1.000245        87.74489
0.48                   0.9994135        86.97485
0.484                  0.9986794        86.22877
0.488                  0.9981724         85.5026
0.492                  0.9979821        84.78959
0.496                  0.9981429        84.08143
0.5                    0.9986263        83.36974
0.504                  0.9993471        82.64751
0.508                   1.000178        81.91042
0.512                   1.000972        81.15755
0.516                   1.001589        80.39147
0.52                     1.00192        79.61778
0.524                   1.001906        78.84419
0.528                   1.001547        78.07904
0.532                   1.000905           77.33
0.536                   1.000092        76.60263
0.54                   0.9992516        75.89939
0.544                  0.9985309        75.21919
0.548                  0.9980581        74.55748
0.552                   0.997918        73.90706
0.556                   0.998136        73.25933
0.56                   0.9986744        72.60585
0.564                  0.9994381        71.93977
0.568                   1.000292        71.25716
0.572                   1.001084        70.55764
0.576                   1.001674        69.84438
0.58                    1.001955         69.1236
0.584                   1.001878        68.40346
0.588                   1.001452        67.69257
0.592                   1.000751        66.99856
0.596                  0.9998984        66.32675
0.6                    0.9990439        65.67908
0.604                  0.9983397        65.05379
0.608                  0.9979123        64.44562
0.612                  0.9978397        63.84675
0.616                  0.9981367        63.24812
0.62                   0.9987524        62.64115
0.624                  0.9995787        62.01919
0.628                   1.000469        61.37878
0.632                   1.001265        60.72024
0.636                   1.001823        60.04759
0.64                    1.002044        59.36781
0.644                   1.001885        58.68966
0.648                   1.001372        58.02212
0.652                   1.000591        57.37289
0.656                  0.9996812        56.74687
0.66                    0.998802        56.14542
0.664                  0.9981107        55.56592
0.668                  0.9977324        55.00219
0.672                   0.997737        54.44561
0.676                  0.9981262         53.8866
0.68                   0.9988326        53.31633
0.684                  0.9997316        52.72841
0.688                   1.000663        52.12001
0.692                   1.001461        51.49227
0.696                    1.00198         50.8502
0.7                     1.002126        50.20176
0.704                    1.00187        49.55643
0.708                   1.001252         48.9236
0.712                    1.00038        48.31092
0.716                   0.999406        47.72289
0.72                   0.9985041        47.16002
0.724                  0.9978364        46.61866
0.728                  0.9975254         46.0915
0.732                  0.9976302        45.56895
0.736                  0.9981356        45.04079
0.74                   0.9989542        44.49805
0.744                  0.9999413        43.93464
0.748                   1.000921        43.34847
0.752                   1.001718         42.7418
0.756                   1.002186        42.12085
0.76                    1.002239        41.49468
0.764                   1.001861        40.87364
0.768                   1.001116        40.26758
0.772                   1.000132        39.68406
0.776                  0.9990809        39.12702
0.78                   0.9981512        38.59598
0.784                  0.9975104        38.08597
0.788                  0.9972768        37.58841
0.792                  0.9974962        37.09256
0.796                   0.998133        36.58752
0.8                    0.9990758        36.06416
0.804                   1.000157        35.51685
0.808                   1.001183        34.94447
0.812                   1.001968        34.35056
0.816                   1.002367        33.74275
0.82                    1.002304        33.13141
0.824                   1.001783        32.52782
0.828                   1.000892        31.94225
0.832                  0.9997846         31.3821
0.836                  0.9986563        30.85054
0.84                   0.9977096        30.34579
0.844                  0.9971176        29.86138
0.848                  0.9969911        29.38716
0.852                   0.997359        28.91111
0.856                  0.9981599        28.42158
0.86                   0.9992541         27.9094
0.864                   1.000447        27.36957
0.868                   1.001525        26.80216
0.872                   1.002291         26.2123
0.876                   1.002605        25.60929
0.88                    1.002402        25.00498
0.884                   1.001712        24.41169
0.888                    1.00065        23.84014
0.892                  0.9994016        23.29742
0.896                  0.9981872        22.78572
0.9                     0.997226        22.30174
0.904                  0.9966949        21.83716
0.908                  0.9966954        21.38004
0.912                  0.9972339        20.91695
0.916                  0.9982192        20.43549
0.92                   0.9994778        19.92653
0.924                   1.000785        19.38593
0.928                   1.001905        18.81523
0.932                   1.002632        18.22147
0.936                   1.002829        17.61587
0.94                    1.002452        17.01192
0.944                   1.001558        16.42312
0.948                   1.000299        15.86049
0.952                  0.9988946         15.3307
0.956                  0.9975946        14.83461
0.96                   0.9966357        14.36704
0.964                   0.996197        13.91744
0.968                   0.996366        13.47178
0.972                  0.9971208        13.01505
0.976                  0.9983333        12.53405
0.98                   0.9997901        12.01987
0.984                   1.001231        11.46947
0.988                   1.002396        10.88629
0.992                    1.00307        10.27958
0.996                   1.003124        9.662849
1                       1.002537        9.051527
1.004                   1.001402        8.460319
1.008                  0.9999118        7.900624
1.012                  0.9983277         7.37841
1.016                  0.9969332        6.892957
1.02                   0.9959833        6.436753
1.024                  0.9956574        5.996656
1.028                  0.9960245        5.556191
1.032                  0.9970284        5.098576
1.036                  0.9984958        4.609849
1.04                    1.000167        4.081474
1.044                   1.001741          3.5119
1.048                   1.002931        2.906833
1.052                   1.003514        2.278238
1.056                   1.003374        1.642288
1.06                    1.002518        1.016613
1.064                   1.001084       0.4172851
1.068                  0.9993165      -0.1440361
1.072                  0.9975254      -0.6623321
1.076                  0.9960326       -1.140395
1.08                   0.9951139       -1.588631
1.084                  0.9949464       -2.023392
1.088                  0.9955744        -2.46408
1.092                  0.9968972       -2.929551
1.096                  0.9986865        -3.43458
1.1                     1.000625       -3.987103
1.104                   1.002365        -4.58679
1.108                   1.003587       -5.225058
1.112                   1.004061       -5.886712
1.116                   1.003685       -6.552382
1.12                    1.002505       -7.201687
1.124                   1.000713       -7.817059
1.128                  0.9986156       -8.386535
1.132                  0.9965818       -8.906342
1.136                  0.9949795       -9.381865
1.14                   0.9941078       -9.827085
1.144                    0.99414       -10.26228
1.148                  0.9950876        -10.7104
1.152                  0.9967946       -11.19273
1.156                   0.998964       -11.72489
1.16                    1.001209       -12.31395
1.164                   1.003124       -12.95711
1.168                   1.004354       -13.64227
1.172                   1.004658        -14.3501
1.176                   1.003958       -15.05722
1.18                    1.002348       -15.74014
1.184                   1.000089       -16.37922
1.188                  0.9975675       -16.96231
1.192                  0.9952271       -17.48724
1.196                  0.9934939       -17.96277
1.2                    0.9926967       -18.40755
1.204                   0.993002       -18.84697
1.208                  0.9943789       -19.30855
1.212                  0.9965993       -19.81672
1.216                  0.9992775       -20.38818
1.22                    1.001937       -21.02881
1.224                   1.004096       -21.73271
1.228                   1.005352       -22.48321
1.232                   1.005454       -23.25572
1.236                   1.004348       -24.02173
1.24                    1.002191       -24.75351
1.244                  0.9993334       -25.42879
1.248                  0.9962633       -26.03494
1.252                  0.9935244       -26.57181
1.256                    0.99162       -27.05257
1.26                   0.9909186       -27.50201
1.264                  0.9915793       -27.95231
1.268                  0.9935156       -28.43714
1.272                  0.9964038       -28.98509
1.276                  0.9997393       -29.61433
1.28                    1.002925       -30.32921
1.284                   1.005377       -31.11964
1.288                   1.006627       -31.96285
1.292                   1.006405       -32.82717
1.296                   1.004691       -33.67703
1.3                     1.001725       -34.47868
1.304                  0.9979816        -35.2059
1.308                  0.9940911       -35.84507
1.312                  0.9907409       -36.39856
1.316                  0.9885503        -36.8856
1.32                   0.9879519       -37.33979
1.324                  0.9891016       -37.80334
1.328                  0.9918382       -38.31909
1.332                  0.9957037       -38.92222
1.336                   1.000023       -39.63342
1.34                     1.00402       -40.45533
1.344                   1.006957       -41.37225
1.348                   1.008258        -42.3529
1.352                   1.007615       -43.35545
1.356                   1.005043       -44.33385
1.36                    1.000894       -45.24496
1.364                  0.9958155       -46.05583
1.368                  0.9906563       -46.75028
1.372                  0.9863264       -47.33354
1.376                  0.9836357       -47.83348
1.38                   0.9831334       -48.29726
1.384                  0.9849868        -48.7832
1.388                  0.9889316       -49.34946
1.392                  0.9943059       -50.04251
1.396                   1.000163        -50.8882
1.4                     1.005436        -51.8874
1.404                   1.009123       -53.01641
1.408                   1.010452       -54.23107
1.412                   1.009019       -55.47336
1.416                   1.004866       -56.67961
1.42                   0.9985032       -57.78965
1.424                  0.9908556       -58.75668
1.428                   0.983145       -59.55688
1.432                  0.9766988       -60.19739
1.436                  0.9727133        -60.7196
1.44                   0.9720095        -61.1953
1.444                  0.9748414       -61.71455
1.448                  0.9808063       -62.36787
1.452                   0.988893       -63.22764
1.456                  0.9976501       -64.33431
1.46                    1.005433       -65.69046
1.464                   1.010677       -67.26204
1.468                   1.012142       -68.98481
1.472                   1.009114       -70.77304
1.476                   1.001544       -72.52976
1.48                   0.9901083       -74.15826
1.484                  0.9761868       -75.57607
1.488                  0.9617352       -76.73197
1.492                  0.9490292       -77.62459
1.496                  0.9402801       -78.31734
1.5                    0.9371659       -78.94115
1.504                  0.9403877       -79.67769
1.508                  0.9493914       -80.72418
1.512                  0.9623592       -82.25308
1.516                  0.9764628       -84.38223
1.52                   0.9882722       -87.16513
1.524                  0.9941889       -90.59823
1.528                  0.9908139       -94.63624
1.532                  0.9752162       -99.20761
1.536                  0.9451076       -104.2256
1.54                   0.8989453       -109.5934
1.544                  0.8359818       -115.2027
1.548                  0.7562777       -120.9236
1.552                  0.6606943       -126.5796
1.556                  0.5508885       -131.8823
1.56                   0.4293827       -136.2473
1.564                  0.3000192       -138.1142
1.568                  0.1710281       -131.2727
1.572                 0.08892088       -81.22792
1.576                  0.1675448       -29.21812
1.58                    0.296389        -21.8944
1.584                  0.4261078        -23.6826
1.588                  0.5481556       -28.06532
1.592                  0.6585921       -33.42856
1.596                  0.7548174       -39.17312
1.6                    0.8350972        -45.0053
1.604                  0.8984934       -50.74531
1.608                  0.9448719       -56.26096
1.612                  0.9749184       -61.44111
1.616                  0.9901326       -66.18517
1.62                   0.9927899        -70.4012
1.624                  0.9858508       -74.01095
1.628                  0.9727974        -76.9613
1.632                  0.9573687        -79.2412
1.636                  0.9431866       -80.89969
1.64                    0.933293       -82.05634
1.644                  0.9296934       -82.89318
1.648                  0.9330505       -83.62374
1.652                   0.942661       -84.44788
1.656                  0.9567339       -85.51149
1.66                   0.9728656        -86.8865
1.664                  0.9885498       -88.57333
1.668                   1.001599       -90.51736
1.672                   1.010426       -92.62934
1.676                   1.014191       -94.80347
1.68                    1.012842       -96.93203
1.684                   1.007059        -98.9171
1.688                  0.9981371       -100.6812
1.692                  0.9877852       -102.1773
1.696                  0.9778758       -103.3977
1.7                    0.9701474       -104.3778
1.704                  0.9659107       -105.1933
1.708                  0.9658211       -105.9466
1.712                  0.9697756       -106.7458
1.716                  0.9769698       -107.6832
1.72                   0.9860908       -108.8177
1.724                  0.9955888       -110.1687
1.728                   1.003956       -111.7173
1.732                   1.009962       -113.4154
1.736                   1.012816       -115.1958
1.74                    1.012253       -116.9834
1.744                   1.008544       -118.7051
1.748                   1.002434       -120.2993
1.752                  0.9950307       -121.7243
1.756                  0.9876232       -122.9651
1.76                   0.9814796       -124.0372
1.764                  0.9776322       -124.9853
1.768                  0.9766967       -125.8759
1.772                   0.978768       -126.7849
1.776                  0.9834181       -127.7819
1.78                   0.9897948       -128.9178
1.784                  0.9967936       -130.2164
1.788                    1.00326       -131.6735
1.792                   1.008181       -133.2596
1.796                   1.010831       -134.9276
1.8                      1.01087       -136.6204
1.804                    1.00838       -138.2791
1.808                   1.003837       -139.8517
1.812                  0.9980353       -141.2998
1.816                  0.9919653       -142.6051
1.82                   0.9866505       -143.7727
1.824                  0.9829795       -144.8317
1.828                  0.9815509       -145.8305
1.832                  0.9825696       -146.8279
1.836                  0.9858168       -147.8818
1.84                   0.9907004       -149.0386
1.844                  0.9963727        -150.325
1.848                   1.001886       -151.7449
1.852                   1.006351       -153.2805
1.856                    1.00908       -154.8971
1.86                    1.009679       -156.5486
1.864                   1.008102       -158.1852
1.868                    1.00465       -159.7605
1.872                  0.9999178       -161.2375
1.876                  0.9947041        -162.595
1.88                    0.989883       -163.8312
1.884                  0.9862602       -164.9647
1.888                  0.9844345        -166.032
1.892                   0.984693       -167.0812
1.896                  0.9869637       -168.1629
1.9                    0.9908332       -169.3209
1.904                  0.9956285       -170.5842
1.908                   1.000541       -171.9627
1.912                   1.004764       -173.4473
1.916                   1.007626       -175.0117
1.92                    1.008687       -176.6181
1.924                   1.007804        -178.223
1.928                   1.005146       -179.7831
1.932                   1.001163        178.7378
1.936                  0.9965209        177.3635
1.94                   0.9919918        176.1014
1.944                  0.9883302        174.9406
1.948                  0.9861446         173.853
1.952                  0.9857913        172.7981
1.956                  0.9873118        171.7302
1.96                   0.9904283         170.607
1.964                  0.9945981        169.3972
1.968                  0.9991129        168.0858
1.972                   1.003223        166.6754
1.976                    1.00626        165.1851
1.98                    1.007741        163.6468
1.984                   1.007443        162.0996
1.988                   1.005428        160.5841
1.992                   1.002034        159.1366
1.996                   0.997824        157.7833
2                      0.9934961        156.5362
2.004                  0.9897712        155.3906
2.008                  0.9872724        154.3249
2.012                  0.9864156        153.3041
2.016                  0.9873358        152.2863
2.02                   0.9898637        151.2298
2.024                  0.9935585        150.1013
2.028                   0.997789        148.8813
2.032                   1.001844         147.567
2.036                   1.005055        146.1719
2.04                    1.006897        144.7229
2.044                   1.007075        143.2558
2.048                   1.005564        141.8096
2.052                   1.002612        140.4209
2.056                  0.9987019        139.1183
2.06                   0.9944775         137.918
2.064                  0.9906408          136.82
2.068                  0.9878344        135.8082
2.072                  0.9865304        134.8518
2.076                   0.986945        133.9113
2.08                   0.9890004        132.9453
2.084                  0.9923375        131.9181
2.088                  0.9963835        130.8062
2.092                   1.000453        129.6019
2.096                   1.003864         128.314
2.1                      1.00605        126.9654
2.104                   1.006649        125.5893
2.108                   1.005558         124.224
2.112                   1.002946         122.907
2.116                  0.9992336        121.6695
2.12                   0.9950268        120.5314
2.124                   0.991021        119.4974
2.128                  0.9878878        118.5555
2.132                  0.9861573        117.6788
2.136                  0.9861239        116.8289
2.14                   0.9877912         115.964
2.144                  0.9908695        115.0455
2.148                  0.9948291        114.0458
2.152                  0.9989939        112.9525
2.156                   1.002658          111.77
2.16                    1.005201         110.518
2.164                    1.00619        109.2281
2.168                   1.005443        107.9387
2.172                    1.00306        106.6891
2.176                  0.9994094        105.5136
2.18                   0.9950732        104.4366
2.184                  0.9907595        103.4674
2.188                  0.9871861        102.5983
2.192                  0.9849583        101.8049
2.196                  0.9844592        101.0496
2.2                    0.9857783        100.2884
2.204                  0.9886908        99.47883
2.208                   0.992697        98.58786
2.212                  0.9971107        97.59759
2.216                   1.001177        96.50778
2.22                    1.004198        95.33527
2.224                   1.005645        94.11074
2.228                   1.005242        92.87375
2.232                   1.003009        91.66697
2.236                  0.9992629         90.5298
2.24                   0.9945782        89.49239
2.244                  0.9896995        88.57024
2.248                  0.9854252        87.76067
2.252                  0.9824748         87.0419
2.256                  0.9813583        86.37581
2.26                   0.9822794        85.71425
2.264                  0.9850905        85.00778
2.268                  0.9893149        84.21492
2.272                  0.9942273        83.30958
2.276                  0.9989778        82.28513
2.28                    1.002733        81.15487
2.284                    1.00481        79.94923
2.288                   1.004782        78.71097
2.292                    1.00255        77.48902
2.296                  0.9983652        76.33161
2.3                    0.9928029        75.27916
2.304                  0.9866886        74.35757
2.308                  0.9809784        73.57243
2.312                  0.9766045        72.90602
2.316                  0.9743127        72.31808
2.32                   0.9745163        71.75155
2.324                  0.9772064        71.14248
2.328                  0.9819358        70.43194
2.332                  0.9878871         69.5769
2.336                  0.9940058         68.5575
2.34                   0.9991693         67.3795
2.344                   1.002363        66.07258
2.348                   1.002834         64.6856
2.352                   1.000209        63.27999