! TOUCHSTONE file generated by CST MICROWAVE STUDIO
! Date and time: Tue Jun  7 22:11:14 2022
! Project name: AppElm_antenne_patch_FR4.cst
! Parameters = {L=45; W=58.5; e=0.035; h=1.6; lambda=0.190476; ls=120; w0=1.6; w1=0.4531; ws=120; y0=20; y1=23.81}
! Header version: 2018
! Port assignment regex: !\s*Touchstone port\s*([0-9]+)\s*=\s*(CST MWS port|CST DS port)\s*([0-9]+|Zmin|Zmax)\s*\(\"(.*)\"\)(\s*mode\s*([0-9]+))?.*
! Touchstone port assignment:
! Touchstone port 1 = CST MWS port 1 ("")
# GHz S MA R 50
0                      0.9886701              -0
0.004                   0.989335       -9.923002
0.008                  0.9912396       -19.75878
0.012                  0.9941269       -29.42438
0.016                  0.9976123       -38.84474
0.02                     1.00124       -47.95509
0.024                   1.004545       -56.70208
0.028                   1.007122       -65.04393
0.032                   1.008669       -72.94984
0.036                   1.009029       -80.39934
0.04                    1.008206       -87.38162
0.044                   1.006358        -93.8953
0.048                   1.003773       -99.94841
0.052                   1.000832       -105.5585
0.056                  0.9979511       -110.7522
0.06                    0.995524       -115.5648
0.064                  0.9938675       -120.0383
0.068                  0.9931762       -124.2186
0.072                  0.9934977       -128.1522
0.076                  0.9947302       -131.8826
0.08                   0.9966438       -135.4472
0.084                  0.9989206       -138.8744
0.088                   1.001206       -142.1834
0.092                   1.003163       -145.3837
0.096                    1.00452       -148.4768
0.1                     1.005108       -151.4586
0.104                   1.004879       -154.3217
0.108                   1.003909       -157.0583
0.112                   1.002381       -159.6631
0.116                   1.000557       -162.1349
0.12                   0.9987314       -164.4782
0.124                  0.9971904       -166.7033
0.128                  0.9961645       -168.8262
0.132                  0.9957948       -170.8662
0.136                  0.9961135       -172.8443
0.14                   0.9970425         -174.78
0.144                  0.9984095       -176.6891
0.148                  0.9999794       -178.5821
0.152                   1.001494        179.5369
0.156                   1.002715        177.6697
0.16                    1.003457        175.8232
0.164                    1.00362        174.0076
0.168                   1.003196        172.2342
0.172                   1.002274        170.5134
0.176                   1.001017        168.8528
0.18                   0.9996395        167.2556
0.184                  0.9983692        165.7198
0.188                  0.9974108        164.2387
0.192                  0.9969126        162.8013
0.196                  0.9969441        161.3942
0.2                    0.9974853        160.0038
0.204                  0.9984327        158.6182
0.208                  0.9996184        157.2288
0.212                    1.00084        155.8319
0.216                   1.001894        154.4286
0.22                    1.002611        153.0243
0.224                   1.002879         151.628
0.228                   1.002664        150.2499
0.232                   1.002012        148.9003
0.236                   1.001038        147.5873
0.24                   0.9999117         146.316
0.244                   0.998823        145.0869
0.248                  0.9979536        143.8962
0.252                  0.9974453        142.7363
0.256                  0.9973772        141.5968
0.26                   0.9977525        140.4667
0.264                  0.9985002        139.3357
0.268                  0.9994868        138.1961
0.272                   1.000542        137.0442
0.276                   1.001485        135.8803
0.28                     1.00216        134.7089
0.284                   1.002456        133.5376
0.288                   1.002328        132.3758
0.292                   1.001804         131.233
0.296                   1.000976        130.1173
0.3                    0.9999878        129.0339
0.304                  0.9990098        127.9844
0.308                  0.9982078        126.9661
0.312                  0.9977168        125.9728
0.316                  0.9976172        124.9958
0.32                   0.9979221        124.0251
0.324                  0.9985748        123.0513
0.328                  0.9994595        122.0673
0.332                   1.000422        121.0693
0.336                   1.001297        120.0575
0.34                    1.001936        119.0356
0.344                   1.002231        118.0107
0.348                   1.002135        116.9916
0.352                   1.001667        115.9871
0.356                   1.000911        115.0053
0.36                   0.9999985        114.0512
0.364                  0.9990875        113.1268
0.368                  0.9983355        112.2297
0.372                  0.9978722        111.3545
0.376                  0.9977765        110.4929
0.38                    0.998063        109.6356
0.384                  0.9986802        108.7738
0.388                  0.9995192        107.9007
0.392                   1.000433        107.0125
0.396                   1.001264        106.1095
0.4                     1.001867        105.1953
0.404                   1.002141        104.2767
0.408                   1.002037        103.3622
0.412                   1.001577        102.4606
0.416                    1.00084        101.5795
0.42                   0.9999548        100.7239
0.424                  0.9990759        99.89568
0.428                  0.9983565         99.0926
0.432                  0.9979218        98.30919
0.436                  0.9978477        97.53741
0.44                   0.9981464        96.76815
0.444                  0.9987647        95.99283
0.448                  0.9995936        95.20487
0.452                   1.000488        94.40087
0.456                    1.00129        93.58114
0.46                    1.001861        92.74961
0.464                     1.0021        91.91311
0.468                   1.001966        91.08014
0.472                   1.001483        90.25947
0.476                   1.000734        89.45855
0.48                    0.999851        88.68223
0.484                  0.9989881        87.93195
0.488                  0.9982972         87.2053
0.492                  0.9979006        86.49651
0.496                  0.9978686        85.79743
0.5                    0.9982073        85.09888
0.504                  0.9988567        84.39238
0.508                  0.9997026         83.6716
0.512                   1.000596        82.93353
0.516                   1.001378        82.17893
0.52                    1.001911        81.41215
0.524                   1.002101        80.64039
0.528                   1.001912        79.87243
0.532                   1.001376        79.11708
0.536                   1.000587        78.38168
0.54                   0.9996815        77.67079
0.544                  0.9988191        76.98537
0.548                  0.9981525        76.32247
0.552                  0.9978002        75.67583
0.556                  0.9978257        75.03682
0.56                   0.9982252        74.39611
0.564                  0.9989286        73.74521
0.568                  0.9998116        73.07809
0.572                   1.000717        72.39223
0.576                   1.001485        71.68899
0.58                    1.001977        70.97342
0.584                   1.002106         70.2533
0.588                   1.001847         69.5378
0.592                   1.001243        68.83589
0.596                   1.000399        68.15478
0.6                    0.9994635        67.49859
0.604                  0.9986027        66.86761
0.608                  0.9979703         66.2582
0.612                  0.9976805        65.66326
0.616                  0.9977875        65.07361
0.62                   0.9982739        64.47954
0.624                  0.9990547        63.87262
0.628                  0.9999921        63.24719
0.632                   1.000919         62.6014
0.636                    1.00167        61.93747
0.64                    1.002111        61.26132
0.644                    1.00216        60.58153
0.648                   1.001806        59.90781
0.652                   1.001108        59.24933
0.656                   1.000189        58.61308
0.66                   0.9992086         58.0027
0.664                  0.9983432        57.41758
0.668                  0.9977476        56.85306
0.672                  0.9975306        56.30112
0.676                  0.9977335        55.75181
0.68                   0.9983226        55.19501
0.684                  0.9991941        54.62234
0.688                   1.000194        54.02863
0.692                   1.001142        53.41289
0.696                   1.001869        52.77839
0.7                     1.002242        52.13216
0.704                   1.002192        51.48369
0.708                   1.001724        50.84331
0.712                   1.000916        50.22036
0.716                  0.9999112        49.62158
0.72                   0.9988863         49.0498
0.724                  0.9980255        48.50337
0.728                  0.9974851        47.97639
0.732                  0.9973651        47.45968
0.736                  0.9976913        46.94238
0.74                   0.9984082          46.414
0.744                  0.9993897        45.86627
0.748                   1.000461        45.29471
0.752                    1.00143        44.69939
0.756                   1.002121        44.08492
0.76                    1.002407         43.4596
0.764                   1.002233        42.83404
0.768                   1.001624        42.21922
0.772                   1.000684        41.62468
0.776                  0.9995773        41.05667
0.78                   0.9985003        40.51711
0.784                  0.9976467        40.00303
0.788                  0.9971724        39.50702
0.792                  0.9971665        39.01857
0.796                  0.9976339        38.52585
0.8                    0.9984941        38.01796
0.804                  0.9995942        37.48693
0.808                   1.000737        36.92912
0.812                   1.001717        36.34593
0.816                   1.002354        35.74353
0.82                     1.00253        35.13174
0.824                   1.002206        34.52232
0.828                   1.001435        33.92699
0.832                   1.000348        33.35529
0.836                  0.9991364        32.81286
0.84                   0.9980169        32.30039
0.844                  0.9971923        31.81326
0.848                  0.9968156        31.34236
0.852                  0.9969602        30.87558
0.856                  0.9976054        30.40009
0.86                   0.9986397        29.90465
0.864                  0.9998795        29.38173
0.868                   1.001103        28.82885
0.872                   1.002088        28.24907
0.876                   1.002654        27.65035
0.88                    1.002693        27.04427
0.884                   1.002191        26.44393
0.888                   1.001229        25.86172
0.892                  0.9999744        25.30712
0.896                  0.9986475        24.78494
0.9                    0.9974865        24.29431
0.904                  0.9967038        23.82869
0.908                  0.9964459        23.37694
0.912                  0.9967657        22.92523
0.916                  0.9976117        22.45966
0.92                   0.9988361        21.96877
0.924                    1.00022        21.44571
0.928                   1.001514        20.88947
0.932                   1.002482        20.30506
0.936                   1.002945        19.70261
0.94                    1.002809        19.09561
0.944                   1.002091        18.49858
0.948                   1.000909        17.92458
0.952                   0.999468        17.38282
0.956                  0.9980236        16.87693
0.96                   0.9968372        16.40413
0.964                  0.9961279        15.95552
0.968                  0.9960319        15.51759
0.972                  0.9965755         15.0746
0.976                  0.9976686        14.61151
0.98                   0.9991198        14.11681
0.984                    1.00067        13.58461
0.988                    1.00204        13.01577
0.992                   1.002978        12.41766
0.996                   1.003308        11.80292
1                       1.002961        11.18726
1.004                   1.001986        10.58677
1.008                   1.000546        10.01511
1.012                  0.9988938        9.481046
1.016                  0.9973218        8.986714
1.02                   0.9961164        8.526984
1.024                  0.9955024         8.09017
1.028                  0.9956006        7.660014
1.032                  0.9964034        7.218642
1.036                  0.9977742        6.749904
1.04                   0.9994706        6.242411
1.044                   1.001188         5.69163
1.048                   1.002613        5.100706
1.052                   1.003483         4.47988
1.056                   1.003628        3.844715
1.06                    1.003007        3.213434
1.064                   1.001715        2.603814
1.068                  0.9999692        2.030072
1.072                  0.9980746        1.500235
1.076                  0.9963697        1.014455
1.08                   0.9951671       0.5646542
1.084                  0.9946946       0.1357249
1.088                  0.9950514      -0.2918538
1.092                  0.9961863      -0.7384174
1.096                  0.9979048       -1.221286
1.1                     0.999903       -1.751512
1.104                   1.001822       -2.331843
1.108                   1.003312       -2.956262
1.112                   1.004094       -3.611056
1.116                   1.004012       -4.277164
1.12                    1.003061       -4.933408
1.124                   1.001391       -5.560092
1.128                  0.9992852       -6.142412
1.132                  0.9971116       -6.673396
1.136                  0.9952617       -7.155384
1.14                    0.994078       -7.600102
1.144                   0.993789       -8.026828
1.148                  0.9944645       -8.458971
1.152                  0.9959983       -8.919714
1.156                  0.9981244       -9.427596
1.16                    1.000465       -9.993035
1.164                   1.002596       -10.61643
1.168                   1.004124       -11.28814
1.172                   1.004758       -11.99016
1.176                    1.00436       -12.69919
1.18                    1.002971       -13.39047
1.184                   1.000812         -14.042
1.188                  0.9982482       -14.63848
1.192                  0.9957287       -15.17427
1.196                  0.9937095       -15.65503
1.2                     0.992569       -16.09721
1.204                   0.992535       -16.52545
1.208                  0.9936381       -16.96811
1.212                  0.9956998       -17.45196
1.216                  0.9983628       -17.99699
1.22                    1.001154       -18.61273
1.224                   1.003567       -19.29652
1.228                   1.005156        -20.0341
1.232                   1.005611       -20.80204
1.236                   1.004815        -21.5716
1.24                    1.002873       -22.31347
1.244                   1.000093       -23.00269
1.248                  0.9969464       -23.62313
1.252                  0.9939873       -24.17096
1.256                  0.9917555       -24.65607
1.26                   0.9906765       -25.10112
1.264                  0.9909765       -25.53778
1.268                  0.9926342       -26.00095
1.272                   0.995376       -26.52205
1.276                  0.9987234       -27.12295
1.28                    1.002077        -27.8119
1.284                   1.004823       -28.58219
1.288                   1.006441       -29.41342
1.292                   1.006598       -30.27488
1.296                   1.005207       -31.13055
1.3                     1.002451        -31.9448
1.304                  0.9987624       -32.68837
1.308                   0.994759       -33.34377
1.312                  0.9911422       -33.90935
1.316                  0.9885748       -34.40085
1.32                   0.9875541       -34.84968
1.324                  0.9883108       -35.29776
1.328                  0.9907541       -35.78963
1.332                  0.9944781       -36.36375
1.336                  0.9988318       -37.04505
1.34                    1.003033       -37.84044
1.344                   1.006307       -38.73777
1.348                   1.008021       -39.70814
1.352                   1.007793       -40.71061
1.356                   1.005567       -41.69852
1.36                    1.001633       -42.62661
1.364                  0.9965955       -43.45854
1.368                  0.9912883       -44.17382
1.372                  0.9866395       -44.77315
1.376                  0.9835091       -45.28049
1.38                   0.9825203       -45.74058
1.384                  0.9839255       -46.21154
1.388                  0.9875398       -46.75364
1.392                  0.9927584       -47.41731
1.396                  0.9986603        -48.2333
1.4                     1.004169       -49.20729
1.404                   1.008239       -50.31949
1.408                   1.010035       -51.52832
1.412                    1.00907       -52.77683
1.416                   1.005307       -54.00075
1.42                   0.9991822       -55.13776
1.424                  0.9915689       -56.13733
1.428                  0.9836674       -56.97084
1.432                  0.9768212       -57.63994
1.436                  0.9722815       -58.18106
1.44                   0.9709563       -58.66274
1.444                  0.9732021       -59.17457
1.448                  0.9787146       -59.80963
1.452                  0.9865558       -60.64527
1.456                  0.9953093        -61.7281
1.46                    1.003324       -63.06666
1.464                    1.00899       -64.63185
1.468                   1.010993       -66.36286
1.472                   1.008529       -68.17595
1.476                   1.001446       -69.97448
1.48                   0.9903225       -71.66052
1.484                  0.9764562       -73.14844
1.488                  0.9617457       -74.38185
1.492                  0.9484521       -75.35221
1.496                  0.9388259       -76.11494
1.5                    0.9346398        -76.7943
1.504                  0.9367312        -77.5691
1.508                  0.9446957       -78.63923
1.512                  0.9568442       -80.18464
1.516                   0.970432        -82.3334
1.52                   0.9820607       -85.14963
1.524                  0.9881179       -88.63939
1.528                  0.9851584       -92.76612
1.532                  0.9701849       -97.46726
1.536                  0.9408324        -102.667
1.54                   0.8954756       -108.2839
1.544                  0.8332787       -114.2339
1.548                  0.7542031       -120.4278
1.552                  0.6589839       -126.7616
1.556                  0.5490827       -133.0915
1.56                   0.4266326       -139.1587
1.564                  0.2944262       -144.3022
1.568                  0.1563597       -145.6233
1.572                 0.03549102       -90.26926
1.576                  0.1391959       -7.324223
1.58                   0.2776122       -7.487972
1.584                   0.410892       -12.45259
1.588                  0.5348265       -18.51074
1.592                  0.6465042       -24.89641
1.596                  0.7436783       -31.32477
1.6                    0.8247636         -37.643
1.604                  0.8888946       -43.74336
1.608                  0.9359774       -49.53423
1.612                  0.9667223       -54.92913
1.616                  0.9826462       -59.84337
1.62                   0.9860363       -64.19615
1.624                   0.979859       -67.91759
1.628                  0.9675942       -70.96152
1.632                   0.952968       -73.32302
1.636                  0.9395754       -75.05657
1.64                   0.9304185       -76.28593
1.644                  0.9274561       -77.19544
1.648                  0.9313089       -77.99858
1.652                  0.9412476       -78.89317
1.656                  0.9554779       -80.02221
1.66                   0.9716151       -81.45489
1.664                  0.9871889       -83.18988
1.668                   1.000057       -85.17184
1.672                   1.008681        -87.3116
1.676                   1.012269       -89.50424
1.68                    1.010808       -91.64342
1.684                   1.005013       -93.63313
1.688                  0.9961939        -95.3984
1.692                  0.9860629       -96.89516
1.696                  0.9764734       -98.11876
1.7                    0.9691254       -99.10754
1.704                   0.965277       -99.93874
1.708                  0.9655252       -100.7148
1.712                  0.9697166       -101.5422
1.716                  0.9770138       -102.5102
1.72                    0.986095       -103.6743
1.724                  0.9954254       -105.0507
1.728                   1.003532       -106.6184
1.732                   1.009232        -108.328
1.736                   1.011788       -110.1122
1.74                    1.010986       -111.8966
1.744                    1.00714       -113.6099
1.748                   1.001024        -115.193
1.752                  0.9937536       -116.6072
1.756                  0.9866052       -117.8407
1.76                   0.9808109       -118.9123
1.764                  0.9773482       -119.8685
1.768                  0.9767699       -120.7764
1.772                  0.9791107       -121.7104
1.776                  0.9838987       -122.7374
1.78                    0.990261       -123.9044
1.784                  0.9970998       -125.2319
1.788                   1.003291       -126.7125
1.792                   1.007868        -128.315
1.796                   1.010165       -129.9915
1.8                       1.0099       -131.6853
1.804                   1.007204       -133.3394
1.808                   1.002591       -134.9041
1.812                  0.9968732       -136.3443
1.816                  0.9910301       -137.6452
1.82                   0.9860529       -138.8153
1.824                  0.9827761       -139.8862
1.828                  0.9817321       -140.9068
1.832                  0.9830603       -141.9352
1.836                  0.9864893       -143.0267
1.84                   0.9913973       -144.2239
1.844                  0.9969353       -145.5495
1.848                    1.00218       -147.0041
1.852                    1.00629       -148.5675
1.856                   1.008636       -150.2038
1.86                    1.008887        -151.867
1.864                   1.007055       -153.5089
1.868                   1.003484       -155.0854
1.872                  0.9987916       -156.5629
1.876                  0.9937751       -157.9239
1.88                   0.9892788       -159.1701
1.884                  0.9860565       -160.3229
1.888                  0.9846396       -161.4201
1.892                  0.9852458       -162.5091
1.896                  0.9877429       -163.6384
1.9                      0.99168        -164.848
1.904                  0.9963743       -166.1628
1.908                   1.001036        -167.589
1.912                   1.004902       -169.1144
1.916                    1.00736       -170.7113
1.92                    1.008038       -172.3415
1.924                   1.006854       -173.9627
1.928                   1.004027       -175.5342
1.932                    1.00004       -177.0228
1.936                  0.9955599       -178.4086
1.94                   0.9913366       -179.6879
1.944                  0.9880754        179.1252
1.948                  0.9863179        178.0008
1.952                  0.9863471        176.8986
1.956                  0.9881387        175.7749
1.96                   0.9913684        174.5908
1.964                  0.9954748        173.3193
1.968                   0.999762        171.9495
1.972                   1.003519        170.4874
1.976                   1.006138        168.9543
1.98                    1.007204        167.3825
1.984                   1.006562        165.8104
1.988                    1.00433        164.2764
1.992                   1.000886        162.8135
1.996                  0.9968031        161.4441
2                      0.9927622        160.1761
2.004                  0.9894388        159.0012
2.008                  0.9873899        157.8957
2.012                  0.9869542        156.8242
2.016                  0.9881943        155.7463
2.02                   0.9908855        154.6237
2.024                  0.9945592        153.4273
2.028                  0.9985887        152.1423
2.032                   1.002298        150.7696
2.036                   1.005074        149.3253
2.04                    1.006467        147.8376
2.044                   1.006254        146.3415
2.048                   1.004474        144.8742
2.052                   1.001423        143.4691
2.056                  0.9976034        142.1508
2.06                   0.9936484        140.9308
2.064                  0.9902185        139.8055
2.068                  0.9878898        138.7557
2.072                  0.9870536        137.7498
2.076                  0.9878453        136.7495
2.08                   0.9901211        135.7164
2.084                  0.9934837        134.6193
2.088                  0.9973555        133.4397
2.092                   1.001081        132.1743
2.096                   1.004035         130.835
2.1                     1.005727        129.4465
2.104                   1.005875        128.0419
2.108                   1.004452        126.6576
2.112                   1.001684         125.328
2.116                  0.9980219          124.08
2.12                   0.9940689        122.9286
2.124                  0.9904836         121.874
2.128                  0.9878696        120.9006
2.132                  0.9866708        119.9798
2.136                  0.9870901         119.074
2.14                   0.9890514        118.1441
2.144                  0.9922135        117.1564
2.148                  0.9960309        116.0887
2.152                  0.9998507        114.9338
2.156                   1.003024        113.7002
2.16                    1.005012        112.4098
2.164                   1.005471        111.0948
2.168                    1.00431         109.792
2.172                   1.001698        108.5373
2.176                  0.9980481        107.3607
2.18                   0.9939513         106.281
2.184                  0.9900833         105.302
2.188                  0.9870935        104.4115
2.192                  0.9854913        103.5825
2.196                  0.9855537        102.7773
2.2                    0.9872716        101.9547
2.204                  0.9903492        101.0772
2.208                   0.994256        100.1181
2.212                  0.9983204        99.06568
2.216                   1.001844        97.92501
2.22                    1.004217        96.71624
2.224                   1.005016        95.47129
2.228                   1.004072        94.22863
2.232                   1.001498        93.02768
2.236                  0.9976771        91.90283
2.24                   0.9932073        90.87792
2.244                  0.9888108        89.96174
2.248                  0.9852176        89.14551
2.252                  0.9830393        88.40333
2.256                  0.9826574        87.69583
2.26                   0.9841483        86.97714
2.264                   0.987263        86.20324
2.268                  0.9914681        85.34014
2.272                  0.9960365        84.36972
2.276                   1.000171        83.29247
2.28                    1.003137        82.12678
2.284                   1.004376        80.90565
2.288                     1.0036        79.67163
2.292                   1.000837        78.47067
2.296                  0.9964399        77.34559
2.3                    0.9910394        76.32937
2.304                  0.9854618        75.43907
2.308                  0.9805995         74.6716
2.312                   0.977264        74.00208
2.316                   0.976037        73.38657
2.32                   0.9771536        72.76884
2.324                  0.9804445        72.09065
2.328                  0.9853518        71.30243
2.332                  0.9910172        70.37235
2.336                  0.9964217         69.2913
2.34                    1.000547        68.07377
2.344                   1.002538        66.75512
2.348                   1.001828        65.38638
2.352                  0.9982413        64.02757