! TOUCHSTONE file generated by CST MICROWAVE STUDIO
! Date and time: Tue Jun  7 22:11:20 2022
! Project name: AppElm_antenne_patch_FR4.cst
! Parameters = {L=45; W=58.5; e=0.035; h=1.6; lambda=0.190476; ls=120; w0=1.6; w1=0.613; ws=120; y0=20; y1=23.81}
! Header version: 2018
! Port assignment regex: !\s*Touchstone port\s*([0-9]+)\s*=\s*(CST MWS port|CST DS port)\s*([0-9]+|Zmin|Zmax)\s*\(\"(.*)\"\)(\s*mode\s*([0-9]+))?.*
! Touchstone port assignment:
! Touchstone port 1 = CST MWS port 1 ("")
# GHz S MA R 50
0                      0.9898218              -0
0.004                  0.9904414       -9.937141
0.008                  0.9922134       -19.78719
0.012                  0.9948914       -29.46726
0.016                   0.998107       -38.90226
0.02                    1.001426       -48.02727
0.024                    1.00441       -56.78879
0.028                   1.006678        -65.1449
0.032                    1.00796       -73.06489
0.036                   1.008122       -80.52854
0.04                    1.007191       -87.52574
0.044                   1.005338       -94.05609
0.048                   1.002858        -100.129
0.052                   1.000122       -105.7635
0.056                   0.997527       -110.9878
0.06                   0.9954358       -115.8382
0.064                  0.9941252       -120.3573
0.068                  0.9937458       -124.5907
0.072                  0.9943035       -128.5835
0.076                  0.9956644       -132.3772
0.08                   0.9975799       -136.0065
0.084                  0.9997309       -139.4969
0.088                   1.001779       -142.8649
0.092                    1.00342       -146.1179
0.096                   1.004426       -149.2562
0.1                     1.004677       -152.2753
0.104                   1.004173       -155.1686
0.108                    1.00303       -157.9302
0.112                    1.00146       -160.5569
0.116                  0.9997304       -163.0507
0.12                   0.9981244       -165.4189
0.124                  0.9968954       -167.6745
0.128                  0.9962269       -169.8351
0.132                  0.9962046       -171.9207
0.136                  0.9968063       -173.9511
0.14                    0.997909        -175.944
0.144                  0.9993129       -177.9123
0.148                   1.000777       -179.8631
0.152                    1.00206        178.2025
0.156                   1.002958        176.2889
0.16                     1.00334        174.4043
0.164                   1.003161        172.5592
0.168                   1.002468        170.7639
0.172                   1.001392        169.0267
0.176                   1.000124        167.3521
0.18                   0.9988797          165.74
0.184                  0.9978663        164.1853
0.188                  0.9972474        162.6787
0.192                  0.9971159        161.2078
0.196                  0.9974803        159.7594
0.2                    0.9982659        158.3212
0.204                  0.9993283        156.8839
0.208                   1.000481        155.4425
0.212                   1.001526        153.9965
0.216                   1.002291          152.55
0.22                    1.002653        151.1108
0.224                   1.002559        149.6883
0.228                   1.002034        148.2926
0.232                   1.001177        146.9318
0.236                   1.000137        145.6116
0.24                   0.9990957        144.3332
0.244                  0.9982294        143.0938
0.248                   0.997683        141.8867
0.252                   0.997544        140.7025
0.256                  0.9978288        139.5305
0.26                   0.9984811        138.3605
0.264                  0.9993823        137.1849
0.268                   1.000373        135.9992
0.272                   1.001282        134.8033
0.276                   1.001955         133.601
0.28                    1.002279         132.399
0.284                   1.002204        131.2061
0.288                   1.001747        130.0315
0.292                   1.000992        128.8831
0.296                   1.000071        127.7661
0.3                    0.9991455        126.6822
0.304                  0.9983742        125.6294
0.308                   0.997889        124.6019
0.312                  0.9977712        123.5915
0.316                   0.998037        122.5886
0.32                   0.9986365        121.5843
0.324                   0.999462        120.5716
0.328                   1.000368        119.5468
0.332                   1.001197        118.5097
0.336                   1.001806        117.4639
0.34                    1.002092        116.4159
0.344                   1.002007         115.374
0.348                   1.001569        114.3468
0.352                   1.000857        113.3419
0.356                  0.9999949        112.3641
0.36                   0.9991342        111.4152
0.364                  0.9984247        110.4931
0.368                  0.9979899        109.5924
0.372                  0.9979041        108.7054
0.376                  0.9981808        107.8231
0.38                   0.9987697        106.9371
0.384                  0.9995663         106.041
0.388                    1.00043        105.1313
0.392                   1.001211        104.2082
0.396                   1.001772        103.2755
0.4                     1.002017        102.3394
0.404                   1.001905        101.4083
0.408                   1.001455        100.4904
0.412                   1.000748        99.59288
0.416                   0.999907        98.72048
0.42                   0.9990799        97.87454
0.424                  0.9984119        97.05293
0.428                  0.9980202        96.25017
0.432                  0.9979737        95.45854
0.436                  0.9982799        94.66933
0.44                   0.9988845        93.87443
0.444                  0.9996807         93.0677
0.448                   1.000528        92.24619
0.452                   1.001278         91.4104
0.456                   1.001799        90.56427
0.46                    1.001999         89.7145
0.464                   1.001844        88.86925
0.468                   1.001359        88.03683
0.472                    1.00063        87.22418
0.476                   0.999785        86.43568
0.48                   0.9989714        85.67241
0.484                  0.9983331        84.93177
0.488                  0.9979831        84.20802
0.492                  0.9979836        83.49322
0.496                  0.9983352        82.77862
0.5                    0.9989757        82.05623
0.504                  0.9997922        81.32027
0.508                    1.00064        80.56813
0.512                    1.00137        79.80082
0.516                   1.001853        79.02279
0.52                    1.002002        78.24108
0.524                    1.00179        77.46413
0.528                   1.001253         76.7003
0.532                   1.000484        75.95638
0.536                  0.9996174        75.23646
0.54                   0.9988059        74.54109
0.544                  0.9981935        73.86714
0.548                  0.9978893        73.20837
0.552                  0.9979486         72.5564
0.556                  0.9983618        71.90231
0.56                   0.9990569        71.23814
0.564                   0.999911         70.5584
0.568                   1.000773        69.86099
0.572                   1.001489         69.1475
0.576                   1.001933        68.42304
0.58                    1.002024        67.69522
0.584                   1.001743        66.97287
0.588                   1.001138        66.26448
0.592                   1.000313        65.57674
0.596                  0.9994144        64.91334
0.6                    0.9985996        64.27422
0.604                  0.9980144        63.65557
0.608                  0.9977642        63.05043
0.612                  0.9978961        62.44986
0.616                   0.998388        61.84461
0.62                   0.9991545        61.22672
0.624                    1.00006        60.59104
0.628                   1.000945        59.93601
0.632                    1.00165        59.26407
0.636                   1.002049        58.58109
0.64                     1.00207        57.89539
0.644                   1.001705        57.21633
0.648                   1.001016        56.55259
0.652                   1.000123        55.91076
0.656                  0.9991819        55.29401
0.66                   0.9983607        54.70157
0.664                  0.9978069        54.12873
0.668                  0.9976214        53.56763
0.672                  0.9978403        53.00867
0.676                  0.9984273        52.44217
0.68                     0.99928        51.86019
0.684                   1.000248        51.25793
0.688                   1.001158         50.6346
0.692                   1.001849        49.99355
0.696                   1.002194        49.34162
0.7                      1.00213        48.68803
0.704                   1.001663        48.04271
0.708                   1.000872        47.41462
0.712                  0.9998958        46.81011
0.716                  0.9989049        46.23181
0.72                   0.9980768          45.678
0.724                  0.9975611        45.14292
0.728                   0.997453        44.61765
0.732                  0.9977755        44.09173
0.736                  0.9984746        43.55506
0.74                   0.9994275        42.99971
0.744                   1.000466        42.42138
0.748                   1.001404        41.82018
0.752                   1.002072        41.20054
0.756                    1.00235        40.57051
0.76                    1.002182         39.9403
0.764                   1.001592        39.32053
0.768                   1.000682        38.72039
0.772                  0.9996093        38.14598
0.776                   0.998563        37.59917
0.78                   0.9977308        37.07716
0.784                  0.9972643        36.57287
0.788                   0.997251        36.07615
0.792                  0.9976976         35.5756
0.796                  0.9985282        35.06061
0.8                     0.999597        34.52335
0.804                   1.000714        33.96016
0.808                   1.001679        33.37221
0.812                   1.002317         32.7653
0.816                    1.00251        32.14882
0.82                    1.002217        31.53414
0.824                   1.001484        30.93263
0.828                   1.000436        30.35371
0.832                  0.9992541        29.80312
0.836                  0.9981494        29.28178
0.84                   0.9973203        28.78555
0.844                  0.9969189        28.30582
0.848                  0.9970227          27.831
0.852                  0.9976184         27.3486
0.856                  0.9986041        26.84754
0.86                   0.9998061        26.32015
0.864                    1.00101         25.7636
0.868                   1.002001        25.18037
0.872                   1.002596        24.57784
0.876                   1.002684        23.96698
0.88                    1.002242        23.36047
0.884                    1.00134        22.77054
0.888                   1.000133        22.20675
0.892                   0.998831        21.67433
0.896                  0.9976662        21.17306
0.9                    0.9968501        20.69716
0.904                  0.9965342        20.23622
0.908                  0.9967822        19.77698
0.912                  0.9975565        19.30575
0.916                  0.9987237        18.81096
0.92                    1.000078        18.28523
0.924                   1.001378        17.72679
0.928                   1.002389        17.13969
0.932                   1.002925        16.53321
0.936                   1.002883        15.92015
0.94                    1.002261        15.31468
0.944                    1.00116        14.72991
0.948                   0.999768        14.17557
0.952                  0.9983301        13.65616
0.956                  0.9971033        13.17004
0.96                   0.9963119        12.70946
0.964                  0.9961053        12.26186
0.968                  0.9965295        11.81206
0.972                  0.9975165        11.34504
0.976                  0.9988958        10.84871
0.98                    1.000424        10.31619
0.984                   1.001827        9.746988
0.988                   1.002851         9.14713
0.992                   1.003307        8.528086
0.996                   1.003101        7.904807
1                       1.002259        7.293186
1.004                   1.000919        6.707315
1.008                    0.99931        6.156985
1.012                  0.9977164        5.645805
1.016                  0.9964241        5.170331
1.02                   0.9956712        4.720446
1.024                  0.9956028         4.28102
1.028                  0.9962422        3.834611
1.032                  0.9974844        3.364678
1.036                  0.9991139        2.858667
1.04                    1.000842        2.310323
1.044                   1.002359         1.72082
1.048                   1.003387        1.098536
1.052                   1.003734       0.4576045
1.056                   1.003322      -0.1844866
1.06                     1.00221      -0.8098471
1.064                   1.000581       -1.403262
1.068                  0.9987136        -1.95493
1.072                  0.9969381       -2.462413
1.076                  0.9955751       -2.931372
1.08                   0.9948783       -3.374851
1.084                  0.9949856       -3.811091
1.088                  0.9958918       -4.260244
1.092                  0.9974462        -4.74062
1.096                  0.9993779       -5.265274
1.1                     1.001344       -5.839583
1.104                   1.002991       -6.460257
1.108                   1.004015       -7.116119
1.112                    1.00422       -7.789738
1.116                    1.00355       -8.460545
1.12                    1.002102       -9.108239
1.124                   1.000116       -9.716316
1.128                  0.9979334       -10.27496
1.132                  0.9959393       -10.78323
1.136                   0.994497       -11.24957
1.14                   0.9938782       -11.69069
1.144                   0.994212       -12.12869
1.148                   0.995456       -12.58708
1.152                   0.997402       -13.08633
1.156                  0.9997106       -13.64004
1.16                    1.001971       -14.25245
1.164                   1.003776       -14.91771
1.168                   1.004789       -15.62093
1.172                    1.00481       -16.34068
1.176                   1.003808       -17.05259
1.18                    1.001933        -17.7333
1.184                  0.9994936       -18.36456
1.188                  0.9969091       -18.93661
1.192                  0.9946382       -19.45032
1.196                  0.9930969       -19.91772
1.2                    0.9925813       -20.36019
1.204                  0.9932085       -20.80488
1.208                  0.9948897       -21.27961
1.212                  0.9973424       -21.80765
1.216                   1.000139       -22.40333
1.22                     1.00278       -23.06944
1.224                   1.004788       -23.79679
1.228                   1.005784       -24.56585
1.232                   1.005562       -25.34999
1.236                    1.00412       -26.11977
1.24                    1.001676        -26.8478
1.244                  0.9986296       -27.51341
1.248                  0.9955026       -28.10665
1.252                  0.9928512       -28.63074
1.256                  0.9911661       -29.10234
1.26                   0.9907781       -29.54915
1.264                  0.9917919       -30.00512
1.268                  0.9940576       -30.50406
1.272                  0.9971943        -31.0732
1.276                   1.000654       -31.72801
1.28                    1.003819       -32.46946
1.284                    1.00611       -33.28401
1.288                   1.007089       -34.14594
1.292                   1.006532       -35.02152
1.296                   1.004477       -35.87433
1.3                     1.001229       -36.67108
1.304                  0.9973097       -37.38735
1.308                  0.9933882       -38.01243
1.312                  0.9901617        -38.5524
1.316                  0.9882327       -39.03025
1.32                   0.9879912       -39.48268
1.324                  0.9895313       -39.95369
1.328                  0.9926229       -40.48609
1.332                  0.9967456       -41.11327
1.336                   1.001178       -41.85287
1.34                    1.005126       -42.70372
1.344                   1.007858       -43.64639
1.348                   1.008831       -44.64641
1.352                   1.007789       -45.65976
1.356                   1.004813       -46.63941
1.36                    1.000322       -47.54264
1.364                  0.9950233       -48.33837
1.368                  0.9898056       -49.01357
1.372                  0.9855946       -49.57755
1.376                   0.983184       -50.06249
1.38                   0.9830769       -50.51924
1.384                  0.9853733       -51.00822
1.388                  0.9897317       -51.58772
1.392                  0.9954199       -52.30224
1.396                    1.00144       -53.17426
1.4                       1.0067        -54.2005
1.404                   1.010205       -55.35316
1.408                   1.011217       -56.58455
1.412                   1.009386        -57.8342
1.416                   1.004827       -59.03718
1.42                   0.9981228       -60.13348
1.424                  0.9902677       -61.07803
1.428                  0.9825345        -61.8504
1.432                  0.9762734       -62.46238
1.436                  0.9726675       -62.96061
1.44                   0.9724881       -63.42154
1.444                  0.9759086       -63.93817
1.448                  0.9824335       -64.60129
1.452                  0.9909619       -65.48094
1.456                  0.9999743        -66.6134
1.46                     1.00779       -67.99613
1.464                   1.012839       -69.59013
1.468                    1.01391       -71.32666
1.472                   1.010347       -73.11642
1.476                   1.002174       -74.85976
1.48                   0.9901581       -76.45839
1.484                  0.9757746        -77.8297
1.488                  0.9610692       -78.92429
1.492                  0.9483879       -79.74497
1.496                  0.9399756        -80.3616
1.5                    0.9374951       -80.91262
1.504                  0.9415794       -81.58592
1.508                  0.9515683       -82.58165
1.512                  0.9655253       -84.07057
1.516                   0.980516       -86.16522
1.52                   0.9930353       -88.91172
1.524                  0.9994456       -92.29849
1.528                  0.9963419       -96.27217
1.532                  0.9808138       -100.7529
1.536                  0.9506152        -105.644
1.54                   0.9042637        -110.836
1.544                    0.84109       -116.2013
1.548                  0.7612601       -121.5794
1.552                  0.6657871       -126.7395
1.556                  0.5565821       -131.2913
1.56                   0.4366776       -134.4343
1.564                  0.3112103       -134.1076
1.568                  0.1926366        -123.334
1.572                  0.1311653       -81.96546
1.576                  0.1977522       -42.26908
1.58                   0.3174264       -32.36103
1.584                  0.4430885       -32.33289
1.588                  0.5629191       -35.63495
1.592                  0.6718894       -40.30818
1.596                  0.7669775       -45.58242
1.6                    0.8462581       -51.07791
1.604                  0.9086973       -56.56791
1.608                  0.9541113       -61.89264
1.612                  0.9831608       -66.92348
1.616                  0.9973363       -71.54796
1.62                   0.9989164       -75.66534
1.624                  0.9908771       -79.19032
1.628                  0.9767282       -82.06365
1.632                   0.960251       -84.26913
1.636                  0.9451211       -85.85194
1.64                   0.9344392       -86.92982
1.644                  0.9302619        -87.6857
1.648                  0.9332818       -88.33653
1.652                  0.9427947       -89.08666
1.656                  0.9569786       -90.08608
1.66                   0.9733768       -91.40921
1.664                  0.9894204       -93.05731
1.668                   1.002859        -94.9752
1.672                   1.012047       -97.07223
1.676                   1.016098        -99.2408
1.68                    1.014921        -101.371
1.684                   1.009174       -103.3624
1.688                    1.00014       -105.1348
1.692                  0.9895405       -106.6381
1.696                  0.9792744       -107.8613
1.7                    0.9711267       -108.8374
1.704                  0.9664668       -109.6405
1.708                  0.9660109       -110.3732
1.712                  0.9697082       -111.1458
1.716                  0.9767864       -112.0537
1.72                   0.9859399       -113.1596
1.724                  0.9956021       -114.4859
1.728                   1.004229       -116.0161
1.732                   1.010543       -117.7033
1.736                     1.0137       -119.4805
1.74                    1.013385       -121.2717
1.744                   1.009824       -123.0023
1.748                   1.003736       -124.6084
1.752                  0.9962137       -126.0451
1.756                  0.9885585       -127.2944
1.76                   0.9820706       -128.3687
1.764                  0.9778332       -129.3104
1.768                  0.9765236       -130.1855
1.772                  0.9782969       -131.0707
1.776                  0.9827728       -132.0382
1.78                   0.9891252       -133.1424
1.784                    0.99625       -134.4108
1.788                    1.00297       -135.8421
1.792                   1.008229       -137.4092
1.796                   1.011249       -139.0659
1.8                     1.011633       -140.7551
1.804                   1.009409       -142.4168
1.808                   1.005011       -143.9969
1.812                  0.9992088       -145.4541
1.816                  0.9929891       -146.7668
1.82                   0.9873966       -147.9366
1.824                  0.9833635         -148.99
1.828                  0.9815476       -149.9735
1.832                   0.982219       -150.9462
1.836                  0.9852166       -151.9677
1.84                   0.9899888       -153.0874
1.844                  0.9957037       -154.3357
1.848                   1.001403       -155.7202
1.852                   1.006166       -157.2259
1.856                   1.009253       -158.8198
1.86                    1.010214       -160.4564
1.864                   1.008944       -162.0855
1.868                   1.005692       -163.6588
1.872                   1.001019       -165.1368
1.876                    0.99571       -166.4949
1.88                   0.9906506       -167.7277
1.884                  0.9866818       -168.8505
1.888                  0.9844583       -169.8978
1.892                  0.9843334       -170.9169
1.896                  0.9862992       -171.9597
1.9                     0.989993       -173.0725
1.904                  0.9947699        -174.288
1.908                  0.9998222       -175.6201
1.912                   1.004319       -177.0629
1.916                   1.007544       -178.5926
1.92                    1.008998        179.8275
1.924                   1.008476        178.2409
1.928                   1.006089        176.6921
1.932                   1.002244        175.2197
1.936                  0.9975814        173.8508
1.94                   0.9928733        172.5965
1.944                  0.9889018        171.4495
1.948                  0.9863254        170.3844
1.952                  0.9855659        169.3622
1.956                   0.986734        168.3366
1.96                   0.9896115        167.2632
1.964                   0.993695        166.1073
1.968                  0.9982896        164.8498
1.972                    1.00263        163.4897
1.976                   1.006011        162.0431
1.98                    1.007893        160.5399
1.984                   1.007986        159.0188
1.988                    1.00629        157.5213
1.992                    1.00309        156.0857
1.996                  0.9989142        154.7414
2                       0.994451        153.5042
2.004                  0.9904399        152.3732
2.008                  0.9875486        151.3302
2.012                  0.9862576        150.3423
2.016                  0.9867752        149.3676
2.02                   0.9890007         148.363
2.024                   0.992544        147.2918
2.028                   0.996799        146.1305
2.032                    1.00105        144.8721
2.036                   1.004595        143.5265
2.04                    1.006856        142.1181
2.044                   1.007469        140.6816
2.048                    1.00634        139.2565
2.052                   1.003653        137.8811
2.056                  0.9998449         136.587
2.06                   0.9955404        135.3944
2.064                  0.9914492        134.3075
2.068                  0.9882536        133.3142
2.072                  0.9864886        132.3865
2.076                  0.9864491        131.4858
2.08                   0.9881345        130.5696
2.084                  0.9912501        129.5993
2.088                  0.9952605         128.547
2.092                   0.999486        127.4005
2.096                   1.003219        126.1643
2.1                     1.005841        124.8583
2.104                   1.006918        123.5138
2.108                   1.006268         122.169
2.112                   1.003988         120.863
2.116                   1.000441        119.6299
2.12                    0.996198        118.4937
2.124                  0.9919552         117.464
2.128                  0.9884172        116.5334
2.132                  0.9861788        115.6784
2.136                  0.9856197        114.8629
2.14                   0.9868332         114.044
2.144                  0.9896088        113.1806
2.148                  0.9934699        112.2405
2.152                  0.9977581        111.2061
2.156                   1.001748        110.0766
2.16                    1.004768        108.8678
2.164                   1.006307        107.6088
2.168                   1.006094        106.3371
2.172                   1.004141        105.0933
2.176                   1.000741        103.9148
2.18                   0.9964285        102.8302
2.184                  0.9918987        101.8545
2.188                  0.9878973        100.9856
2.192                  0.9850954        100.2038
2.196                  0.9839713        99.47439
2.2                    0.9847213        98.75353
2.204                  0.9872203        97.99611
2.208                   0.991042        97.16418
2.212                  0.9955339        96.23366
2.216                  0.9999302        95.19812
2.22                    1.003481        94.06917
2.224                   1.005571         92.8739
2.228                   1.005819        91.65042
2.232                   1.004137        90.44215
2.236                   1.000745        89.29154
2.24                   0.9961481        88.23365
2.244                  0.9910614        87.29055
2.248                  0.9863038        86.46657
2.252                   0.982664        85.74637
2.256                  0.9807626        85.09619
2.26                   0.9809362         84.4691
2.264                  0.9831683        83.81321
2.268                  0.9870866        83.08142
2.272                  0.9920237        82.24005
2.276                  0.9971319        81.27437
2.28                    1.001524        80.19043
2.284                   1.004418        79.01347
2.288                   1.005259         77.7835
2.292                   1.003803        76.54948
2.296                   1.000169        75.36253
2.3                    0.9948254        74.26873
2.304                  0.9885381        73.30187
2.308                  0.9822641        72.47696
2.312                  0.9770052        71.78562
2.316                  0.9736387        71.19503
2.32                   0.9727533        70.65162
2.324                  0.9745266        70.08992
2.328                  0.9786754        69.44443
2.332                  0.9844896        68.66204
2.336                  0.9909474        67.71135
2.34                   0.9968802        66.58725
2.344                   1.001156        65.31089
2.348                   1.002855        63.92562
2.352                   1.001402          62.491