! TOUCHSTONE file generated by CST MICROWAVE STUDIO
! Date and time: Tue Jun  7 22:11:13 2022
! Project name: AppElm_antenne_patch_FR4.cst
! Parameters = {L=45; W=58.5; e=0.035; h=1.6; lambda=0.190476; ls=120; w0=1.6; w1=0.42645; ws=120; y0=20; y1=23.81}
! Header version: 2018
! Port assignment regex: !\s*Touchstone port\s*([0-9]+)\s*=\s*(CST MWS port|CST DS port)\s*([0-9]+|Zmin|Zmax)\s*\(\"(.*)\"\)(\s*mode\s*([0-9]+))?.*
! Touchstone port assignment:
! Touchstone port 1 = CST MWS port 1 ("")
# GHz S MA R 50
0                       0.988515              -0
0.004                  0.9891863       -9.921526
0.008                  0.9911097       -19.75567
0.012                  0.9940261       -29.41939
0.016                  0.9975483       -38.83749
0.02                    1.001216       -47.94515
0.024                   1.004563       -56.68899
0.028                   1.007177        -65.0272
0.032                   1.008754         -72.929
0.036                   1.009134       -80.37385
0.04                    1.008319       -87.35089
0.044                   1.006464       -93.85865
0.048                   1.003862       -99.90505
0.052                   1.000892       -105.5075
0.056                  0.9979739       -110.6926
0.06                   0.9955072       -115.4956
0.064                  0.9938133       -119.9585
0.068                  0.9930918       -124.1272
0.072                  0.9933938       -128.0487
0.076                  0.9946209       -131.7667
0.08                    0.996544       -135.3189
0.084                  0.9988437       -138.7341
0.088                   1.001163       -142.0317
0.092                   1.003159       -145.2215
0.096                   1.004557        -148.305
0.1                     1.005181        -151.278
0.104                   1.004978       -154.1331
0.108                    1.00402       -156.8623
0.112                    1.00249       -159.4599
0.116                   1.000648       -161.9243
0.12                   0.9987923       -164.2597
0.124                   0.997213       -166.4764
0.128                  0.9961464         -168.59
0.132                  0.9957398         -170.62
0.136                   0.996031       -172.5874
0.14                    0.996946       -174.5121
0.144                  0.9983143       -176.4102
0.148                   0.999901       -178.2924
0.152                   1.001445        179.8366
0.156                   1.002702        177.9786
0.16                    1.003482        176.1403
0.164                   1.003679        174.3319
0.168                   1.003279         172.565
0.172                   1.002368        170.8502
0.176                   1.001106        169.1953
0.18                   0.9997093         167.604
0.184                  0.9984083        166.0747
0.188                  0.9974126        164.6008
0.192                  0.9968774        163.1713
0.196                  0.9968776        161.7729
0.2                     0.997399        160.3917
0.204                  0.9983412        159.0154
0.208                  0.9995373        157.6352
0.212                   1.000783         156.247
0.216                   1.001871        154.8515
0.22                    1.002626        153.4542
0.224                    1.00293        152.0638
0.228                   1.002742        150.6908
0.232                   1.002104        149.3456
0.236                    1.00113        148.0369
0.24                   0.9999867        146.7698
0.244                  0.9988686        145.5454
0.248                  0.9979613        144.3601
0.252                  0.9974132        143.2064
0.256                  0.9973099        142.0741
0.26                   0.9976606        140.9516
0.264                  0.9983985        139.8285
0.268                  0.9993916        138.6969
0.272                   1.000468        137.5524
0.276                   1.001445        136.3952
0.28                    1.002159        135.2296
0.284                   1.002494         134.063
0.288                   1.002398        132.9051
0.292                   1.001892        131.7654
0.296                   1.001068        130.6525
0.3                     1.000068         129.572
0.304                  0.9990642        128.5256
0.308                  0.9982269        127.5112
0.312                  0.9976977        126.5226
0.316                  0.9975637        125.5511
0.32                   0.9978443        124.5865
0.324                  0.9984867        123.6193
0.328                  0.9993773        122.6418
0.332                   1.000361        121.6499
0.336                   1.001269        120.6434
0.34                    1.001947         119.626
0.344                    1.00228        118.6045
0.348                   1.002215        117.5878
0.352                   1.001766        116.5851
0.356                   1.001012        115.6047
0.36                    1.000085        114.6522
0.364                  0.9991445        113.7296
0.368                  0.9983538        112.8352
0.372                  0.9978487        111.9635
0.376                  0.9977151        111.1063
0.38                    0.997974        110.2542
0.384                  0.9985786         109.398
0.388                  0.9994221        108.5304
0.392                   1.000357        107.6475
0.396                    1.00122        106.7489
0.4                     1.001864        105.8382
0.404                   1.002176        104.9221
0.408                   1.002106        104.0091
0.412                   1.001665        103.1084
0.416                   1.000931        102.2277
0.42                    1.000032        101.3728
0.424                  0.9991253        100.5455
0.428                  0.9983684        99.74424
0.432                  0.9978935         98.9635
0.436                  0.9977834        98.19532
0.44                    0.998057        97.43036
0.444                  0.9986656        96.65974
0.448                  0.9995023        95.87647
0.452                    1.00042        95.07671
0.456                   1.001258        94.26047
0.46                    1.001871        93.43145
0.464                   1.002151        92.59639
0.468                   1.002049        91.76396
0.472                   1.001584        90.94313
0.476                   1.000837        90.14179
0.48                   0.9999373        89.36517
0.484                  0.9990433        88.61512
0.488                  0.9983121        87.88952
0.492                  0.9978728        87.18278
0.496                  0.9978033        86.48668
0.5                    0.9981161        85.79186
0.504                  0.9987564         85.0895
0.508                  0.9996108        84.37282
0.512                   1.000529        83.63838
0.516                   1.001348        82.88661
0.52                    1.001924        82.12164
0.524                   1.002155        81.35064
0.528                   1.001997         80.5825
0.532                   1.001479        79.82634
0.536                   1.000688        79.08991
0.54                    0.999764        78.37818
0.544                  0.9988683        77.69251
0.548                  0.9981595        77.03028
0.552                  0.9977635        76.38532
0.556                  0.9977517        75.74899
0.56                    0.998127        75.11165
0.564                  0.9988236        74.46448
0.568                  0.9997178        73.80101
0.572                   1.000651        73.11828
0.576                   1.001458        72.41731
0.58                    1.001994        71.70297
0.584                   1.002163          70.983
0.588                   1.001933        70.26677
0.592                   1.001342        69.56356
0.596                   1.000493        68.88099
0.6                    0.9995347        68.22368
0.604                  0.9986366        67.59228
0.608                  0.9979593        66.98341
0.612                   0.997625        66.39013
0.616                  0.9976955        65.80312
0.62                   0.9981603         65.2124
0.624                  0.9989383        64.60913
0.628                  0.9998922        63.98719
0.632                   1.000852        63.34425
0.636                   1.001648        62.68224
0.64                    1.002136         62.0069
0.644                   1.002227        61.32683
0.648                   1.001904        60.65192
0.652                    1.00122        59.99172
0.656                   1.000294        59.35367
0.66                     0.99929        58.74185
0.664                  0.9983864        58.15609
0.668                  0.9977459        57.59195
0.672                  0.9974854        57.04151
0.676                  0.9976542        56.49467
0.68                   0.9982249        55.94101
0.684                  0.9990975        55.37168
0.688                   1.000117        54.78106
0.692                     1.0011        54.16769
0.696                   1.001872        53.53456
0.7                     1.002291        52.88855
0.704                    1.00228        52.23923
0.708                   1.001835        51.59719
0.712                   1.001033        50.97217
0.716                   1.000012        50.37137
0.72                   0.9989536        49.79813
0.724                  0.9980457        49.25119
0.728                   0.997453        48.72487
0.732                  0.9972848        48.21002
0.736                  0.9975746        47.69561
0.74                   0.9982732        47.17074
0.744                  0.9992575         46.6267
0.748                   1.000352        46.05847
0.752                    1.00136        45.46568
0.756                   1.002099        44.85263
0.76                    1.002434        44.22757
0.764                   1.002301        43.60116
0.768                   1.001717        42.98473
0.772                   1.000782        42.38818
0.776                  0.9996598        41.81833
0.78                   0.9985499        41.27754
0.784                  0.9976521        40.76322
0.788                  0.9971305        40.26818
0.792                  0.9970831        39.78185
0.796                  0.9975231        39.29218
0.8                    0.9983754        38.78783
0.804                  0.9994893        38.26032
0.808                   1.000666        37.70551
0.812                   1.001693        37.12437
0.816                   1.002384        36.52278
0.82                    1.002611        35.91056
0.824                   1.002326        35.29963
0.828                   1.001575        34.70204
0.832                   1.000486        34.12784
0.836                  0.9992502        33.58323
0.84                   0.9980877        33.06937
0.844                  0.9972091        32.58203
0.848                  0.9967765        32.11224
0.852                   0.996873        31.64783
0.856                   0.997486        31.17567
0.86                   0.9985093        30.68406
0.864                   0.999761        30.16489
0.868                   1.001016        29.61518
0.872                   1.002046        29.03753
0.876                   1.002663        28.43974
0.88                    1.002749        27.83334
0.884                    1.00228        27.23166
0.888                   1.001332        26.64749
0.892                   1.000068        26.09082
0.896                  0.9987106        25.56702
0.9                    0.9975028        25.07572
0.904                  0.9966651         24.6107
0.908                  0.9963536        24.16091
0.912                  0.9966314         23.7124
0.916                  0.9974548        23.25086
0.92                   0.9986801        22.76432
0.924                   1.000089        22.24533
0.928                   1.001428        21.69235
0.932                   1.002454        21.10998
0.936                   1.002977        20.50818
0.94                    1.002895        19.90051
0.944                   1.002213        19.30175
0.948                   1.001045        18.72543
0.952                  0.9995927        18.18134
0.956                  0.9981146        17.67368
0.96                   0.9968775         17.2002
0.964                    0.99611        16.75229
0.968                  0.9959587        16.31651
0.972                  0.9964602         15.8769
0.976                  0.9975319        15.41801
0.98                   0.9989863        14.92773
0.984                   1.000564        14.39958
0.988                    1.00198        13.83387
0.992                   1.002975        13.23762
0.996                   1.003363        12.62332
1                       1.003063        12.00679
1.004                   1.002117        11.40447
1.008                   1.000682        10.83054
1.012                  0.9990077        10.29437
1.016                  0.9973917        9.798693
1.02                   0.9961272        9.338875
1.024                  0.9954491        8.903495
1.028                  0.9954898         8.47629
1.032                  0.9962516          8.0391
1.036                  0.9976054        7.575269
1.04                   0.9993117        7.072762
1.044                   1.001064        6.526402
1.048                   1.002544        5.938797
1.052                   1.003476        5.319852
1.056                   1.003683        4.685041
1.06                     1.00311        4.052761
1.064                   1.001844        3.441199
1.068                   1.000098        2.865154
1.072                  0.9981757        2.333316
1.076                  0.9964198         1.84647
1.08                   0.9951515        1.397027
1.084                  0.9946102       0.9701209
1.088                   0.994907       0.5461707
1.092                  0.9960014       0.1044869
1.096                  0.9977058      -0.3728313
1.1                    0.9997189      -0.8975268
1.104                   1.001679       -1.473024
1.108                   1.003228       -2.093838
1.112                   1.004079       -2.746573
1.116                   1.004061       -3.412216
1.12                     1.00316       -4.069335
1.124                   1.001516       -4.697822
1.128                  0.9994078       -5.282233
1.132                  0.9972043       -5.814871
1.136                  0.9953022       -6.297451
1.14                   0.9940535       -6.741228
1.144                  0.9936993        -7.16529
1.148                  0.9943218       -7.593184
1.152                  0.9958252        -8.04853
1.156                  0.9979503       -8.550529
1.16                     1.00032       -9.110345
1.164                   1.002506       -9.729081
1.168                   1.004107       -10.39762
1.172                    1.00482       -11.09824
1.176                   1.004492       -11.80763
1.18                    1.003153       -12.50073
1.184                   1.001016       -13.15503
1.188                  0.9984395       -13.75447
1.192                  0.9958758       -14.29265
1.196                  0.9937864       -14.77452
1.2                     0.992561       -15.21601
1.204                  0.9924411       -15.64156
1.208                  0.9934712       -16.07971
1.212                  0.9954841        -16.5577
1.216                  0.9981297       -17.09625
1.22                    1.000935        -17.7057
1.224                   1.003391       -18.38413
1.228                   1.005041       -19.11781
1.232                   1.005562       -19.88358
1.236                   1.004826       -20.65267
1.24                    1.002923       -21.39545
1.244                   1.000153       -22.08636
1.248                   0.996985       -22.70853
1.252                  0.9939741        -23.2573
1.256                  0.9916683       -23.74186
1.26                   0.9905057       -24.18437
1.264                  0.9907283       -24.61639
1.268                  0.9923287       -25.07313
1.272                  0.9950456       -25.58662
1.276                  0.9984066       -26.17959
1.28                    1.001813       -26.86122
1.284                   1.004643       -27.62561
1.288                   1.006367       -28.45293
1.292                   1.006635       -29.31279
1.296                   1.005345       -30.16911
1.3                     1.002666       -30.98593
1.304                  0.9990202       -31.73335
1.308                  0.9950186       -32.39303
1.312                  0.9913641        -32.9624
1.316                  0.9887269       -33.45632
1.32                   0.9876178        -33.9056
1.324                  0.9882834       -34.35189
1.328                  0.9906491       -34.83994
1.332                  0.9943227       -35.40883
1.336                  0.9986606       -36.08437
1.34                    1.002882       -36.87439
1.344                   1.006205        -37.7676
1.348                   1.007985       -38.73573
1.352                   1.007827       -39.73816
1.356                   1.005656       -40.72815
1.36                    1.001749       -41.66007
1.364                  0.9966976       -42.49684
1.368                    0.99133       -43.21699
1.372                   0.986577       -43.82008
1.376                  0.9833083       -44.32902
1.38                   0.9821644       -44.78781
1.384                  0.9834188       -45.25428
1.388                  0.9869079        -45.7891
1.392                   0.992045       -46.44353
1.396                  0.9979199        -47.2495
1.4                     1.003459       -48.21396
1.404                   1.007611       -49.31829
1.408                   1.009527       -50.52176
1.412                   1.008705       -51.76798
1.416                   1.005086       -52.99289
1.42                   0.9990851       -54.13397
1.424                  0.9915603       -55.14018
1.428                  0.9836991       -55.98193
1.432                  0.9768404       -56.65973
1.436                  0.9722408       -57.20869
1.44                   0.9708222       -57.69625
1.444                  0.9729629       -58.21142
1.448                  0.9783825       -58.84736
1.452                  0.9861655       -59.68217
1.456                  0.9949112       -60.76373
1.46                    1.002976       -62.10206
1.464                   1.008744       -63.66953
1.468                   1.010892       -65.40662
1.472                   1.008593       -67.23065
1.476                   1.001668       -69.04576
1.48                   0.9906657       -70.75437
1.484                  0.9768479       -72.27069
1.488                  0.9620825       -73.53732
1.492                  0.9486073       -74.54382
1.496                  0.9386636       -75.34271
1.5                    0.9340355       -76.05507
1.504                  0.9355935       -76.85709
1.508                  0.9429829       -77.94769
1.512                  0.9545696       -79.50778
1.516                  0.9676592       -81.66817
1.52                    0.978891       -84.49647
1.524                  0.9846758       -88.00254
1.528                  0.9815783        -92.1535
1.532                  0.9666015        -96.8905
1.536                  0.9373728       -102.1421
1.54                   0.8922547       -107.8327
1.544                  0.8303938       -113.8866
1.548                  0.7517301       -120.2289
1.552                  0.6569709       -126.7808
1.556                  0.5475375       -133.4485
1.56                   0.4254944       -140.0885
1.564                  0.2934673       -146.3759
1.568                  0.1546469       -150.9483
1.572                 0.01907398       -109.0545
1.576                  0.1332062        1.758493
1.58                   0.2727422       -2.139332
1.584                  0.4060584       -8.347415
1.588                  0.5298284       -15.01484
1.592                  0.6413251       -21.75637
1.596                  0.7383691       -28.41398
1.6                    0.8194078       -34.88908
1.604                  0.8835934       -41.10107
1.608                  0.9308406       -46.97348
1.612                  0.9618624       -52.42914
1.616                  0.9781711       -57.38972
1.62                   0.9820428        -61.7791
1.624                  0.9764255        -65.5313
1.628                  0.9647709       -68.60366
1.632                  0.9507686       -70.99425
1.636                  0.9379689       -72.75981
1.64                   0.9293285       -74.02503
1.644                  0.9267676       -74.97341
1.648                  0.9308857       -75.81612
1.652                   0.940954         -76.748
1.656                  0.9551997       -77.90941
1.66                   0.9712734       -79.36806
1.664                   0.986745       -81.12225
1.668                  0.9995098       -83.11726
1.672                    1.00806       -85.26509
1.676                   1.011625       -87.46226
1.68                    1.010202       -89.60402
1.684                   1.004505       -91.59599
1.688                  0.9958346       -93.36471
1.692                   0.985882       -94.86746
1.696                  0.9764732       -96.10038
1.7                    0.9692784       -97.10197
1.704                  0.9655285       -97.94871
1.708                  0.9658018       -98.74149
1.712                  0.9699392       -99.58497
1.716                  0.9771115       -100.5664
1.72                   0.9860168       -101.7402
1.724                  0.9951471       -103.1216
1.728                   1.003059         -104.69
1.732                   1.008595       -106.3963
1.736                    1.01104       -108.1745
1.74                    1.010194       -109.9514
1.744                   1.006373        -111.657
1.748                   1.000348       -113.2335
1.752                  0.9932188       -114.6438
1.756                  0.9862392       -115.8769
1.76                   0.9806143       -116.9519
1.764                  0.9772942       -117.9154
1.768                  0.9768091       -118.8333
1.772                  0.9791809       -119.7786
1.776                  0.9839363       -120.8164
1.78                   0.9902127       -121.9924
1.784                   0.996932       -123.3259
1.788                   1.002994       -124.8093
1.792                   1.007459       -126.4115
1.796                    1.00968       -128.0853
1.8                     1.009393       -129.7752
1.804                   1.006737       -131.4252
1.808                   1.002222       -132.9871
1.812                  0.9966476        -134.427
1.816                  0.9909755       -135.7312
1.82                   0.9861701       -136.9088
1.824                  0.9830385       -137.9909
1.828                  0.9820902        -139.026
1.832                   0.983449       -140.0705
1.836                  0.9868391       -141.1781
1.84                   0.9916471       -142.3897
1.844                  0.9970412        -143.727
1.848                   1.002123       -145.1898
1.852                   1.006077        -146.758
1.856                   1.008297       -148.3961
1.86                    1.008473       -150.0593
1.864                   1.006627       -151.7006
1.868                   1.003104       -153.2771
1.872                  0.9985133       -154.7567
1.876                  0.9936341        -156.123
1.88                   0.9892874       -157.3784
1.884                  0.9861995       -158.5442
1.888                  0.9848782       -159.6577
1.892                  0.9855228       -160.7651
1.896                  0.9879944       -161.9132
1.9                     0.991846       -163.1405
1.904                  0.9964096       -164.4706
1.908                   1.000918       -165.9089
1.912                   1.004634       -167.4431
1.916                   1.006969       -169.0458
1.92                    1.007573       -170.6798
1.924                   1.006376        -172.304
1.928                   1.003601       -173.8788
1.932                  0.9997234       -175.3728
1.936                  0.9953944       -176.7672
1.94                   0.9913394        -178.059
1.944                  0.9882369       -179.2626
1.948                  0.9866018        179.5928
1.952                  0.9866968        178.4679
1.956                  0.9884868        177.3206
1.96                   0.9916492        176.1136
1.964                  0.9956353        174.8216
1.968                  0.9997701        173.4344
1.972                    1.00337        171.9585
1.976                   1.005851        170.4149
1.98                    1.006825        168.8353
1.984                   1.006149        167.2566
1.988                   1.003949         165.716
1.992                   1.000597         164.245
1.996                  0.9966534        162.8647
2                      0.9927753        161.5821
2.004                  0.9896112        160.3886
2.008                    0.98769        159.2607
2.012                  0.9873282        158.1642
2.016                  0.9885749        157.0601
2.02                   0.9912041         155.912
2.024                   0.994758        154.6923
2.028                  0.9986297        153.3873
2.032                    1.00217        151.9984
2.036                   1.004795        150.5418
2.04                    1.006078        149.0446
2.044                   1.005815         147.541
2.048                   1.004054        146.0666
2.052                   1.001089        144.6532
2.056                  0.9974077         143.324
2.06                   0.9936226        142.0896
2.064                  0.9903654        140.9456
2.068                  0.9881827        139.8733
2.072                  0.9874404        138.8419
2.076                  0.9882573        137.8146
2.08                   0.9904841        136.7548
2.084                  0.9937326        135.6331
2.088                  0.9974443        134.4323
2.092                    1.00099        133.1498
2.096                   1.003776        131.7976
2.1                     1.005338        130.3998
2.104                   1.005416        128.9883
2.108                   1.003994        127.5982
2.112                     1.0013         126.262
2.116                  0.9977745        125.0052
2.12                   0.9939983        123.8415
2.124                  0.9906013        122.7703
2.128                  0.9881561        121.7761
2.132                  0.9870772        120.8309
2.136                  0.9875467        119.8989
2.14                   0.9894797        118.9426
2.144                  0.9925399        117.9304
2.148                     0.9962        116.8415
2.152                  0.9998338        115.6698
2.156                   1.002824        114.4238
2.16                    1.004662        113.1254
2.164                   1.005032        111.8054
2.168                   1.003855         110.499
2.172                   1.001308        109.2406
2.176                  0.9977953        108.0584
2.18                   0.9938866        106.9694
2.184                  0.9902283        105.9767
2.188                  0.9874354        105.0677
2.192                   0.985984        104.2161
2.196                  0.9861243        103.3856
2.2                    0.9878329        102.5368
2.204                  0.9908144        101.6347
2.208                  0.9945538        100.6542
2.212                  0.9984062        99.58522
2.216                   1.001707         98.4332
2.22                    1.003882        97.21814
2.224                    1.00454          95.971
2.228                   1.003535        94.72875
2.232                   1.000989        93.52893
2.236                  0.9972845        92.40397
2.24                   0.9930017        91.37578
2.244                  0.9888341         90.4517
2.248                   0.985475        89.62223
2.252                  0.9834967        88.86166
2.256                  0.9832461        88.13185
2.26                   0.9847762        87.38895
2.264                  0.9878304        86.59137
2.268                  0.9918846        85.70749
2.272                  0.9962367        84.72109
2.276                   1.000125        83.63372
2.28                    1.002855          82.464
2.284                   1.003909        81.24426
2.288                   1.003031         80.0157
2.292                   1.000271        78.82229
2.296                  0.9959876        77.70453
2.3                    0.9908036         76.6929
2.304                   0.985518         75.8023
2.308                   0.980984        75.02797
2.312                  0.9779639        74.34445
2.316                  0.9769896        73.70843
2.32                   0.9782548        73.06571
2.324                  0.9815635         72.3609
2.328                   0.986353        71.54777
2.332                  0.9917814        70.59753
2.336                  0.9968645        69.50337
2.34                    1.000633        68.28114
2.344                   1.002282        66.96645
2.348                   1.001303        65.60956
2.352                  0.9975634        64.26887