! TOUCHSTONE file generated by CST MICROWAVE STUDIO
! Date and time: Tue Jun  7 22:11:21 2022
! Project name: AppElm_antenne_patch_FR4.cst
! Parameters = {L=45; W=58.5; e=0.035; h=1.6; lambda=0.190476; ls=120; w0=1.6; w1=0.63965; ws=120; y0=20; y1=23.81}
! Header version: 2018
! Port assignment regex: !\s*Touchstone port\s*([0-9]+)\s*=\s*(CST MWS port|CST DS port)\s*([0-9]+|Zmin|Zmax)\s*\(\"(.*)\"\)(\s*mode\s*([0-9]+))?.*
! Touchstone port assignment:
! Touchstone port 1 = CST MWS port 1 ("")
# GHz S MA R 50
0                      0.9899884              -0
0.004                  0.9906016        -9.93934
0.008                  0.9923549       -19.79156
0.012                  0.9950033       -29.47377
0.016                  0.9981805       -38.91082
0.02                    1.001455       -48.03774
0.024                   1.004392       -56.80101
0.028                   1.006616        -65.1587
0.032                   1.007857       -73.08004
0.036                    1.00799       -80.54493
0.04                    1.007041       -87.54328
0.044                   1.005186       -94.07495
0.048                   1.002719       -100.1495
0.052                   1.000013       -105.7862
0.056                    0.99746       -111.0135
0.06                   0.9954193       -115.8681
0.064                  0.9941612       -120.3924
0.068                  0.9938298       -124.6321
0.072                  0.9944254       -128.6322
0.076                  0.9958081        -132.434
0.08                   0.9977263       -136.0714
0.084                  0.9998606       -139.5699
0.088                   1.001875       -142.9454
0.092                   1.003468        -146.205
0.096                   1.004421       -149.3488
0.1                     1.004619       -152.3721
0.104                   1.004071       -155.2686
0.108                     1.0029       -158.0324
0.112                    1.00132        -160.661
0.116                  0.9996018       -163.1565
0.12                    0.998027       -165.5269
0.124                  0.9968441       -167.7856
0.128                  0.9962298       -169.9503
0.132                  0.9962613       -172.0412
0.136                   0.996908        -174.078
0.14                   0.9980396       -176.0782
0.144                  0.9994517        -178.054
0.148                   1.000902        179.9877
0.152                   1.002151        178.0464
0.156                   1.003002        176.1268
0.16                    1.003329        174.2376
0.164                   1.003095        172.3891
0.168                   1.002358        170.5917
0.172                   1.001256        168.8532
0.176                  0.9999827        167.1777
0.18                   0.9987556        165.5647
0.184                  0.9977795        164.0085
0.188                  0.9972114        162.4994
0.192                  0.9971364        161.0248
0.196                  0.9975535        159.5714
0.2                    0.9983792        158.1272
0.204                  0.9994624        156.6832
0.208                   1.000613        155.2349
0.212                   1.001635        153.7823
0.216                   1.002358        152.3302
0.22                    1.002665        150.8865
0.224                   1.002515        149.4609
0.228                   1.001941        148.0633
0.232                   1.001049        146.7018
0.236                  0.9999962        145.3814
0.24                   0.9989643         144.103
0.244                  0.9981297        142.8631
0.248                  0.9976314        141.6547
0.252                  0.9975495        140.4679
0.256                  0.9978904         139.292
0.26                   0.9985884        138.1169
0.264                  0.9995171        136.9354
0.268                   1.000513        135.7435
0.272                   1.001403        134.5416
0.276                   1.002037        133.3339
0.28                    1.002308        132.1278
0.284                   1.002176        130.9321
0.288                   1.001666        129.7561
0.292                   1.000873        128.6074
0.296                  0.9999338        127.4909
0.3                    0.9990133        126.4077
0.304                  0.9982705        125.3553
0.308                  0.9978319        124.3273
0.312                  0.9977709        123.3151
0.316                  0.9980943        122.3091
0.32                    0.998742        121.3005
0.324                  0.9995985        120.2825
0.328                   1.000513         119.252
0.332                   1.001325        118.2093
0.336                   1.001896        117.1586
0.34                    1.002129        116.1069
0.344                   1.001986        115.0627
0.348                   1.001493        114.0346
0.352                   1.000739        113.0299
0.356                  0.9998562        112.0532
0.36                   0.9989988        111.1056
0.364                  0.9983165        110.1844
0.368                  0.9979277        109.2839
0.372                  0.9978993        108.3957
0.376                  0.9982345        107.5109
0.38                    0.998873        106.6211
0.384                  0.9997015        105.7202
0.388                   1.000574        104.8053
0.392                   1.001339        103.8771
0.396                   1.001862        102.9399
0.4                     1.002053        102.0006
0.404                    1.00188        101.0675
0.408                   1.001375        100.1491
0.412                   1.000625        99.25236
0.416                  0.9997626        98.38151
0.42                   0.9989389        97.53741
0.424                  0.9982987        96.71725
0.428                  0.9979545        95.91507
0.432                  0.9979665        95.12273
0.436                  0.9983326        94.33137
0.44                   0.9989875        93.53298
0.444                  0.9998158        92.72179
0.448                   1.000672        91.89534
0.452                   1.001404        91.05474
0.456                   1.001885        90.20451
0.46                     1.00203        89.35181
0.464                   1.001814        88.50508
0.468                   1.001273        87.67262
0.472                   1.000502        86.86114
0.476                  0.9996365        86.07465
0.48                   0.9988285        85.31355
0.484                  0.9982204        84.57472
0.488                  0.9979202        83.85181
0.492                  0.9979817        83.13648
0.496                  0.9983942        82.41987
0.5                    0.9990854        81.69413
0.504                  0.9999332        80.95382
0.508                   1.000788        80.19689
0.512                   1.001498        79.42497
0.516                   1.001939        78.64311
0.52                     1.00203        77.85881
0.524                   1.001756        77.08073
0.528                   1.001162        76.31724
0.532                   1.000353        75.57488
0.536                   0.999468        74.85727
0.54                   0.9986652        74.16433
0.544                  0.9980863        73.49235
0.548                   0.997835        72.83449
0.552                  0.9979572        72.18202
0.556                  0.9984324        71.52589
0.56                   0.9991773        70.85833
0.564                    1.00006        70.17422
0.568                   1.000925        69.47205
0.572                   1.001618        68.75409
0.576                   1.002016        68.02601
0.58                    1.002046        67.29587
0.584                   1.001701        66.57274
0.588                    1.00104        65.86505
0.592                   1.000176        65.17919
0.596                  0.9992626        64.51837
0.6                    0.9984603        63.88188
0.604                  0.9979128        63.26526
0.608                  0.9977191        62.66098
0.612                  0.9979159        62.05978
0.616                    0.99847        61.45231
0.62                   0.9992845        60.83087
0.624                   1.000216        60.19072
0.628                   1.001098        59.53094
0.632                   1.001775         58.8546
0.636                   1.002124        58.16821
0.64                    1.002081        57.48049
0.644                   1.001651        56.80098
0.648                   1.000906        56.13832
0.652                  0.9999761        55.49868
0.656                  0.9990249        54.88473
0.66                   0.9982215        54.29501
0.664                  0.9977103        53.72415
0.668                  0.9975852        53.16377
0.672                  0.9978712        52.60394
0.676                  0.9985203        52.03495
0.68                   0.9994186        51.44916
0.684                   1.000408        50.84225
0.688                   1.001311        50.21411
0.692                   1.001967        49.56874
0.696                   1.002258         48.9136
0.7                     1.002126        48.25829
0.704                   1.001593        47.61287
0.708                   1.000748        46.98618
0.712                  0.9997392        46.38415
0.716                  0.9987437        45.80879
0.72                   0.9979396        45.25773
0.724                  0.9974724        44.72449
0.728                  0.9974292        44.19965
0.732                  0.9978211         43.6725
0.736                  0.9985817        43.13297
0.74                   0.9995773        42.57346
0.744                   1.000632        41.99025
0.748                   1.001556        41.38412
0.752                   1.002185        40.76023
0.756                   1.002402        40.12716
0.76                    1.002164        39.49552
0.764                   1.001508        38.87598
0.768                   1.000546        38.27754
0.772                  0.9994457        37.70584
0.776                  0.9984013        37.16206
0.78                   0.9976001         36.6427
0.784                  0.9971885        36.14001
0.788                  0.9972445        35.64334
0.792                  0.9977623        35.14107
0.796                  0.9986532        34.62274
0.8                    0.9997606        34.08091
0.804                   1.000887        33.51254
0.808                   1.001832        32.91955
0.812                   1.002423        32.30842
0.816                    1.00255        31.68911
0.82                    1.002185        31.07327
0.824                   1.001385        30.47234
0.828                   1.000288        29.89542
0.832                  0.9990847         29.3477
0.836                   0.997989        28.82942
0.84                   0.9971984        28.33568
0.844                  0.9968586        27.85719
0.848                  0.9970357        27.38194
0.852                  0.9977036        26.89729
0.856                  0.9987472        26.39234
0.86                   0.9999826        25.85992
0.864                    1.00119        25.29789
0.868                   1.002151         24.7095
0.872                   1.002692        24.10282
0.876                   1.002709        23.48934
0.88                    1.002192          22.882
0.884                   1.001224        22.29296
0.888                  0.9999723        21.73145
0.892                  0.9986548        21.20206
0.896                  0.9975072        20.70382
0.9                    0.9967375        20.23018
0.904                  0.9964896        19.77006
0.908                  0.9968148        19.30983
0.912                  0.9976617        18.83572
0.916                  0.9988837        18.33645
0.92                    1.000265        17.80523
0.924                    1.00156          17.241
0.928                   1.002534        16.64864
0.932                   1.003008         16.0381
0.936                    1.00289        15.42267
0.94                     1.00219         14.8167
0.944                   1.001025        14.23318
0.948                  0.9995932        13.68137
0.952                  0.9981475        13.16511
0.956                  0.9969466        12.68193
0.96                   0.9962102        12.22329
0.964                  0.9960782        11.77602
0.968                  0.9965832        11.32459
0.972                  0.9976427        10.85401
0.976                   0.999073        10.35258
0.98                    1.000621         9.81406
0.984                   1.002011        9.238779
0.988                   1.002989        8.633572
0.992                   1.003375        8.010586
0.996                   1.003088        7.385201
1                       1.002167        6.773423
1.004                   1.000765        6.189128
1.008                  0.9991231        5.641569
1.012                  0.9975302        5.133598
1.016                  0.9962734        4.660909
1.02                   0.9955845         4.21258
1.024                  0.9955974         3.77289
1.028                  0.9963209        3.324135
1.032                  0.9976348        2.849899
1.036                  0.9993107         2.33811
1.04                    1.001052        1.783256
1.044                   1.002545        1.187374
1.048                   1.003518       0.5596671
1.052                   1.003788     -0.08507719
1.056                   1.003291      -0.7289969
1.06                    1.002099       -1.354167
1.064                   1.000411       -1.945687
1.068                  0.9985173        -2.49438
1.072                   0.996752       -2.998642
1.076                  0.9954344       -3.465043
1.08                   0.9948107       -3.907432
1.084                   0.995006       -4.344604
1.088                   0.995999       -4.796887
1.092                  0.9976233       -5.282364
1.096                  0.9995957        -5.81352
1.1                     1.001566       -6.394796
1.104                   1.003179        -7.02219
1.108                   1.004139       -7.683516
1.112                   1.004259       -8.360769
1.116                   1.003498       -9.033105
1.12                    1.001971        -9.68028
1.124                  0.9999307       -10.28612
1.128                  0.9977284       -10.84159
1.132                  0.9957542       -11.34665
1.136                  0.9943678        -11.8107
1.14                   0.9938314       -12.25123
1.144                  0.9942591       -12.69088
1.148                  0.9955921       -13.15323
1.152                  0.9976057        -13.6584
1.156                  0.9999483       -14.21929
1.16                    1.002204       -14.83923
1.164                   1.003964       -15.51141
1.168                   1.004902        -16.2201
1.172                    1.00483        -16.9433
1.176                   1.003734       -17.65638
1.18                    1.001779       -18.33612
1.184                  0.9992899        -18.9648
1.188                  0.9966943       -19.53344
1.192                  0.9944536       -20.04393
1.196                  0.9929793       -20.50929
1.2                    0.9925558       -20.95171
1.204                  0.9932834       -21.39876
1.208                  0.9950557       -21.87827
1.212                  0.9975732       -22.41305
1.216                   1.000396        -23.0166
1.22                    1.003023        -23.6907
1.224                   1.004976       -24.42516
1.228                   1.005887       -25.19963
1.232                   1.005563       -25.98691
1.236                   1.004023       -26.75742
1.24                      1.0015       -27.48399
1.244                  0.9984087       -28.14655
1.248                  0.9952795       -28.73608
1.252                  0.9926702       -29.25687
1.256                  0.9910643       -29.72661
1.26                   0.9907792       -30.17384
1.264                   0.991901       -30.63288
1.268                  0.9942605       -31.13742
1.272                  0.9974596       -31.71408
1.276                   1.000939       -32.37739
1.28                    1.004079       -33.12722
1.284                   1.006304         -33.949
1.288                   1.007186       -34.81617
1.292                    1.00652        -35.6945
1.296                   1.004363       -36.54745
1.3                     1.001036       -37.34206
1.304                   0.997078       -38.05463
1.308                  0.9931644       -38.67548
1.312                   0.989993       -39.21185
1.316                  0.9881575       -39.68785
1.32                   0.9880317       -40.14103
1.324                  0.9896891       -40.61567
1.328                  0.9928787       -41.15439
1.332                  0.9970622       -41.78978
1.336                   1.001509        -42.5384
1.34                     1.00542       -43.39788
1.344                   1.008073       -44.34769
1.348                   1.008937       -45.35254
1.352                   1.007777       -46.36791
1.356                   1.004692       -47.34674
1.36                    1.000123       -48.24674
1.364                  0.9947902       -49.03761
1.368                  0.9895915       -49.70749
1.372                  0.9854509       -50.26699
1.376                  0.9831513       -50.74955
1.38                   0.9831769       -51.20686
1.384                  0.9856041       -51.69965
1.388                  0.9900685       -52.28576
1.392                  0.9958184       -53.00882
1.396                   1.001846       -53.88996
1.4                     1.007059       -54.92458
1.404                   1.010471       -56.08368
1.408                   1.011359       -57.31874
1.412                   1.009397       -58.56881
1.416                    1.00472       -59.76894
1.42                   0.9979337       -60.85959
1.424                  0.9900498       -61.79658
1.428                  0.9823494       -62.56083
1.432                  0.9761811       -63.16564
1.436                  0.9727147       -63.65915
1.44                    0.972699       -64.11879
1.444                  0.9762789       -64.63789
1.448                  0.9829313       -65.30658
1.452                  0.9915338       -66.19367
1.456                   1.000556       -67.33382
1.46                    1.008316       -68.72286
1.464                   1.013257       -70.32041
1.468                   1.014186       -72.05673
1.472                    1.01047       -73.84197
1.476                   1.002164       -75.57632
1.48                   0.9900604       -77.16183
1.484                  0.9756578       -78.51675
1.488                  0.9610165       -79.59319
1.492                  0.9484855       -80.39591
1.496                  0.9402972       -80.99698
1.5                    0.9380865       -81.53654
1.504                  0.9424486       -82.20303
1.508                  0.9526835       -83.19565
1.512                  0.9668224       -84.68298
1.516                  0.9819133       -86.77475
1.52                   0.9944481       -89.51436
1.524                   1.000799       -92.88777
1.528                  0.9975812       -96.83951
1.532                  0.9819082       -101.2875
1.536                  0.9515626       -106.1327
1.54                    0.905093       -111.2616
1.544                  0.8418648       -116.5411
1.548                  0.7620849       -121.8012
1.552                  0.6668234       -126.7949
1.556                  0.5580839       -131.1014
1.56                    0.439085       -133.8607
1.564                  0.3154181       -132.8984
1.568                  0.2007692       -121.2924
1.572                  0.1446985       -82.54063
1.576                  0.2080554       -45.86087
1.58                   0.3244357       -35.50369
1.584                  0.4483188       -34.98461
1.588                  0.5670495       -37.96181
1.592                  0.6752522       -42.41571
1.596                  0.7697645        -47.5341
1.6                    0.8485982       -52.91375
1.604                  0.9106887       -58.31466
1.608                  0.9558348       -63.56911
1.612                  0.9846844       -68.54366
1.616                  0.9987169       -73.12277
1.62                    1.000199       -77.20375
1.624                  0.9920913       -80.69995
1.628                  0.9778884        -83.5512
1.632                  0.9613542       -85.74022
1.636                  0.9461494         -87.311
1.64                   0.9353652       -88.37968
1.644                  0.9310566       -89.12748
1.648                  0.9339244       -89.76965
1.652                  0.9432799       -90.50961
1.656                  0.9573187       -91.49714
1.66                   0.9736009       -92.80712
1.664                  0.9895689       -94.44158
1.668                   1.002976       -96.34629
1.672                   1.012178       -98.43142
1.676                   1.016278         -100.59
1.68                    1.015175       -102.7127
1.684                   1.009512       -104.6994
1.688                   1.000556       -106.4697
1.692                  0.9900099       -107.9735
1.696                   0.979761        -109.199
1.7                    0.9715865       -110.1781
1.704                  0.9668571       -110.9836
1.708                  0.9662984       -111.7171
1.712                  0.9698761       -112.4879
1.716                  0.9768379       -113.3913
1.72                   0.9858973       -114.4903
1.724                  0.9955019       -115.8082
1.728                   1.004116       -117.3296
1.732                   1.010461       -119.0084
1.736                   1.013689       -120.7786
1.74                    1.013469       -122.5649
1.744                   1.010014       -124.2929
1.748                   1.004023       -125.8989
1.752                  0.9965732       -127.3378
1.756                  0.9889509       -128.5908
1.76                   0.9824491       -129.6691
1.764                  0.9781513       -130.6143
1.768                  0.9767437       -131.4908
1.772                  0.9783985       -132.3747
1.776                  0.9827554       -133.3379
1.78                   0.9890082        -134.435
1.784                  0.9960699       -135.6944
1.788                   1.002772       -137.1157
1.792                   1.008061       -138.6731
1.796                   1.011153       -140.3212
1.8                     1.011639       -142.0037
1.804                    1.00953       -143.6611
1.808                   1.005242       -145.2395
1.812                  0.9995248       -146.6972
1.816                  0.9933509        -148.012
1.82                   0.9877561       -149.1846
1.824                  0.9836709       -150.2401
1.828                  0.9817614       -151.2239
1.832                  0.9823127        -152.194
1.836                  0.9851847       -153.2097
1.84                    0.989847       -154.3207
1.844                  0.9954861        -155.558
1.848                   1.001156       -156.9301
1.852                   1.005939       -158.4233
1.856                   1.009093       -160.0055
1.86                    1.010156       -161.6324
1.864                   1.009006       -163.2542
1.868                   1.005874       -164.8228
1.872                     1.0013       -166.2987
1.876                  0.9960528       -167.6564
1.88                   0.9910056       -168.8898
1.884                  0.9869965       -170.0129
1.888                  0.9846861       -171.0588
1.892                  0.9844418        -172.074
1.896                  0.9862758       -173.1095
1.9                     0.989848       -174.2119
1.904                  0.9945339       -175.4143
1.908                  0.9995404       -176.7316
1.912                   1.004044        -178.159
1.916                   1.007326        -179.674
1.92                    1.008879        178.7589
1.924                   1.008482        177.1828
1.928                   1.006224        175.6416
1.932                   1.002493         174.174
1.936                  0.9979085        172.8077
1.94                   0.9932299        171.5546
1.944                  0.9892326        170.4087
1.948                  0.9865784        169.3461
1.952                  0.9857016        168.3287
1.956                  0.9867322        167.3111
1.96                   0.9894758        166.2491
1.964                  0.9934515        165.1077
1.968                  0.9979823        163.8667
1.972                   1.002314        162.5239
1.976                   1.005741        161.0943
1.98                    1.007717        159.6064
1.984                   1.007937        158.0982
1.988                    1.00638        156.6104
1.992                   1.003309        155.1814
1.996                  0.9992309        153.8411
2                      0.9948159        152.6059
2.004                  0.9907946        151.4764
2.008                   0.987835        150.4357
2.012                  0.9864282        149.4524
2.016                  0.9868017        148.4854
2.02                   0.9888791        147.4921
2.024                  0.9922961        146.4356
2.028                  0.9964674        145.2915
2.032                   1.000692        144.0515
2.036                   1.004272        142.7241
2.04                    1.006623        141.3326
2.044                   1.007368        139.9102
2.048                    1.00639        138.4959
2.052                    1.00385        137.1278
2.056                    1.00016        135.8379
2.06                   0.9959235        134.6469
2.064                  0.9918378        133.5606
2.068                  0.9885819        132.5683
2.072                  0.9867004        131.6436
2.076                  0.9865064        130.7492
2.08                    0.988026        129.8432
2.084                   0.990993        128.8868
2.088                  0.9948975        127.8515
2.092                  0.9990782        126.7238
2.096                   1.002835        125.5065
2.1                     1.005546        124.2178
2.104                   1.006763        122.8881
2.108                   1.006282        121.5543
2.112                   1.004172        120.2553
2.116                   1.000766        119.0253
2.12                   0.9966139        117.8892
2.124                  0.9923921        116.8579
2.128                  0.9887996        115.9258
2.132                  0.9864389        115.0713
2.136                  0.9857085        114.2596
2.14                    0.986731         113.449
2.144                   0.989329        112.5983
2.148                  0.9930565        111.6746
2.152                   0.997279        110.6589
2.156                   1.001283        109.5487
2.16                    1.004394        108.3578
2.164                   1.006088        107.1136
2.168                   1.006069        105.8527
2.172                   1.004316        104.6148
2.176                    1.00109        103.4376
2.18                   0.9968952        102.3504
2.184                  0.9924029        101.3699
2.188                  0.9883493        100.4958
2.192                  0.9854113        99.71077
2.196                  0.9840879        98.98202
2.2                    0.9846082        98.26694
2.204                  0.9868874        97.52075
2.208                  0.9905374        96.70478
2.212                  0.9949359        95.79333
2.216                  0.9993347        94.77782
2.22                    1.002984        93.66753
2.224                   1.005254        92.48749
2.228                   1.005735        91.27429
2.232                     1.0043        90.07049
2.236                   1.001129         88.9185
2.24                   0.9966869         87.8543
2.244                   0.991659        86.90165
2.248                  0.9868486        86.06732
2.252                  0.9830475        85.33876
2.256                  0.9808993        84.68479
2.26                   0.9807806        84.06032
2.264                  0.9827251        83.41413
2.268                  0.9864108        82.69838
2.272                  0.9912122        81.87741
2.276                  0.9963064        80.93373
2.28                    1.000812        79.87044
2.284                   1.003929        78.70998
2.288                   1.005067        77.49023
2.292                   1.003938        76.25885
2.296                   1.000603        75.06674
2.3                    0.9954796        73.96085
2.304                  0.9892886          72.977
2.308                  0.9829612        72.13331
2.312                  0.9774971         71.4251
2.316                  0.9737985        70.82333
2.32                    0.972505        70.27741
2.324                  0.9738628        69.72319
2.328                  0.9776605        69.09461
2.332                  0.9832524        68.33599
2.336                  0.9896583        67.41212
2.34                   0.9957237        66.31357
2.344                   1.000301        65.05731
2.348                   1.002425        63.68343
2.352                   1.001458        62.24918