! TOUCHSTONE file generated by CST MICROWAVE STUDIO
! Date and time: Tue Jun  7 22:11:19 2022
! Project name: AppElm_antenne_patch_FR4.cst
! Parameters = {L=45; W=58.5; e=0.035; h=1.6; lambda=0.190476; ls=120; w0=1.6; w1=0.58635; ws=120; y0=20; y1=23.81}
! Header version: 2018
! Port assignment regex: !\s*Touchstone port\s*([0-9]+)\s*=\s*(CST MWS port|CST DS port)\s*([0-9]+|Zmin|Zmax)\s*\(\"(.*)\"\)(\s*mode\s*([0-9]+))?.*
! Touchstone port assignment:
! Touchstone port 1 = CST MWS port 1 ("")
# GHz S MA R 50
0                       0.989658              -0
0.004                  0.9902837       -9.935123
0.008                  0.9920737       -19.78314
0.012                  0.9947799       -29.46118
0.016                  0.9980321       -38.89414
0.02                    1.001393       -48.01714
0.024                   1.004421       -56.77669
0.028                   1.006732       -65.13093
0.032                   1.008051        -73.0491
0.036                   1.008242       -80.51097
0.04                    1.007328       -87.50634
0.044                   1.005478       -94.03468
0.048                   1.002986       -100.1052
0.052                   1.000224       -105.7367
0.056                  0.9975926       -110.9573
0.06                   0.9954573       -115.8031
0.064                  0.9941001       -120.3164
0.068                  0.9936782        -124.543
0.072                  0.9942028       -128.5283
0.076                  0.9955445       -132.3139
0.08                   0.9974572       -135.9347
0.084                  0.9996227       -139.4169
0.088                   1.001701       -142.7772
0.092                   1.003383       -146.0233
0.096                   1.004435       -149.1556
0.1                     1.004731       -152.1699
0.104                   1.004265       -155.0593
0.108                   1.003148       -157.8176
0.112                   1.001585       -160.4417
0.116                  0.9998446       -162.9328
0.12                   0.9982105       -165.2979
0.124                  0.9969402       -167.5498
0.128                  0.9962232       -169.7057
0.132                  0.9961527       -171.7855
0.136                   0.996714       -173.8092
0.14                   0.9977903       -175.7946
0.144                  0.9991859       -177.7551
0.148                   1.000661       -179.6982
0.152                   1.001974        178.3745
0.156                   1.002915        176.4671
0.16                    1.003346        174.5877
0.164                   1.003215        172.7465
0.168                   1.002562        170.9541
0.172                   1.001511        169.2189
0.176                   1.000249         167.546
0.18                   0.9989902        165.9355
0.184                  0.9979444         164.383
0.188                  0.9972802        162.8793
0.192                  0.9970975        161.4125
0.196                  0.9974138        159.9693
0.2                    0.9981614        158.5372
0.204                  0.9992027        157.1067
0.208                   1.000354        155.6722
0.212                   1.001419        154.2329
0.216                    1.00222        152.7925
0.22                    1.002629        151.3581
0.224                   1.002586        149.9394
0.228                   1.002108        148.5462
0.232                   1.001284         147.187
0.236                    1.00026        145.8676
0.24                   0.9992139        144.5899
0.244                  0.9983228        143.3515
0.248                  0.9977358        142.1462
0.252                  0.9975474        140.9648
0.256                  0.9977823        139.7967
0.26                   0.9983927        138.6317
0.264                  0.9992669        137.4618
0.268                   1.000251        136.2823
0.272                   1.001173        135.0924
0.276                   1.001878        133.8954
0.28                    1.002248        132.6978
0.284                   1.002224        131.5082
0.288                   1.001816        130.3356
0.292                   1.001098         129.188
0.296                   1.000197        128.0712
0.3                    0.9992706        126.9872
0.304                  0.9984769        125.9344
0.308                  0.9979521        124.9077
0.312                  0.9977837        123.8991
0.316                  0.9979969        122.8992
0.32                   0.9985504        121.8991
0.324                  0.9993444        120.8915
0.328                   1.000239        119.8721
0.332                   1.001078        118.8405
0.336                   1.001717        117.7997
0.34                    1.002048        116.7557
0.344                   1.002016        115.7166
0.348                    1.00163         114.691
0.352                   1.000959        113.6864
0.356                   1.000121        112.7082
0.36                    0.999263        111.7585
0.364                  0.9985345        110.8357
0.368                   0.998062         109.935
0.372                  0.9979266         109.049
0.376                    0.99815        108.1689
0.38                   0.9986914        107.2863
0.384                  0.9994544        106.3946
0.388                   1.000305        105.4898
0.392                   1.001094        104.5717
0.396                   1.001684        103.6434
0.4                     1.001974        102.7109
0.404                   1.001914        101.7821
0.408                   1.001516        100.8652
0.412                    1.00085        99.96756
0.416                   1.000033        99.09416
0.42                    0.999208        98.24686
0.424                  0.9985197        97.42403
0.428                  0.9980886        96.62075
0.432                  0.9979898        95.82967
0.436                  0.9982403         95.0423
0.44                    0.998795        94.25047
0.444                   0.999556        93.44788
0.448                   1.000389        92.63103
0.452                   1.001147        91.79999
0.456                   1.001698         90.9581
0.46                    1.001945        90.11162
0.464                   1.001845        89.26841
0.468                   1.001416        88.43667
0.472                   1.000731        87.62348
0.476                  0.9999127        86.83358
0.48                   0.9991033        86.06849
0.484                   0.998446         85.3262
0.488                  0.9980572        84.60151
0.492                   0.998006        83.88684
0.496                  0.9983019        83.17371
0.5                    0.9988928        82.45407
0.504                  0.9996746        81.72187
0.508                   1.000509        80.97409
0.512                   1.001249        80.21117
0.516                   1.001762        79.43702
0.52                     1.00196         78.6582
0.524                   1.001804        77.88287
0.528                   1.001321        77.11928
0.532                   1.000595        76.37439
0.536                  0.9997529        75.65263
0.54                   0.9989423        74.95507
0.544                  0.9983066        74.27918
0.548                  0.9979592        73.61923
0.552                  0.9979624         72.9673
0.556                  0.9983167        72.31464
0.56                   0.9989598        71.65326
0.564                  0.9997783        70.97734
0.568                   1.000627        70.28431
0.572                   1.001355        69.57524
0.576                   1.001833        68.85463
0.58                    1.001975        68.12961
0.584                   1.001754         67.4087
0.588                   1.001206        66.70034
0.592                   1.000427        66.01138
0.596                  0.9995525        65.34589
0.6                    0.9987384        64.70436
0.604                  0.9981294        64.08357
0.608                  0.9978353        63.47712
0.612                  0.9979105         62.8765
0.616                  0.9983437        62.27262
0.62                   0.9990595        61.65748
0.624                  0.9999318        61.02556
0.628                   1.000806        60.37485
0.632                   1.001526        59.70714
0.636                   1.001963        59.02776
0.64                    1.002038        58.34455
0.644                   1.001733        57.66657
0.648                   1.001101        57.00248
0.652                    1.00025        56.35904
0.656                  0.9993293        55.73988
0.66                   0.9985032         55.1448
0.664                  0.9979189        54.56972
0.668                  0.9976828        54.00735
0.672                  0.9978395        53.44848
0.676                  0.9983635        52.88361
0.68                   0.9991633        52.30466
0.684                   1.000098        51.70648
0.688                      1.001        51.08775
0.692                   1.001708        50.45114
0.696                   1.002095        49.80294
0.7                     1.002089        49.15186
0.704                   1.001686        48.50758
0.708                   1.000954        47.87901
0.712                   1.000021        47.27278
0.716                  0.9990511        46.69195
0.72                   0.9982168        46.13545
0.724                  0.9976692        45.59815
0.728                  0.9975095         45.0717
0.732                  0.9977697        44.54604
0.736                  0.9984068        44.01119
0.74                     0.99931        43.45906
0.744                   1.000319        42.88494
0.748                   1.001254        42.28835
0.752                   1.001947        41.67309
0.756                   1.002271        41.04659
0.76                    1.002165        40.41857
0.764                   1.001642        39.79944
0.768                    1.00079        39.19841
0.772                  0.9997572        38.62188
0.776                  0.9987258        38.07225
0.78                   0.9978799        37.54736
0.784                  0.9973733        37.04081
0.788                  0.9972998        36.54307
0.792                  0.9976772        36.04306
0.796                  0.9984409        35.53029
0.8                    0.9994573         34.9967
0.804                   1.000545        34.43818
0.808                   1.001509        33.85525
0.812                   1.002175        33.25303
0.816                   1.002419        32.64027
0.82                    1.002192        32.02788
0.824                   1.001528        31.42703
0.828                   1.000539        30.84719
0.832                  0.9993981        30.29444
0.836                  0.9983065        29.77029
0.84                   0.9974613        29.27128
0.844                  0.9970173         28.7895
0.848                  0.9970595        28.31395
0.852                  0.9975861        27.83249
0.856                  0.9985072        27.33405
0.86                   0.9996615         26.8107
0.864                   1.000843        26.25909
0.868                   1.001841        25.68102
0.872                   1.002472        25.08314
0.876                   1.002619        24.47581
0.88                    1.002248        23.87127
0.884                   1.001418        23.28156
0.888                    1.00027        22.71638
0.892                  0.9990045        22.18137
0.896                  0.9978461        21.67694
0.9                    0.9970048        21.19808
0.904                  0.9966362         20.7351
0.908                  0.9968126        20.27534
0.912                   0.997509        19.80543
0.916                  0.9986055        19.31376
0.92                   0.9999085        18.79265
0.924                   1.001185         18.2397
0.928                   1.002205        17.65827
0.932                    1.00278        17.05685
0.936                   1.002801         16.4476
0.94                    1.002253        15.84427
0.944                   1.001226        15.25983
0.948                  0.9998938        14.70416
0.952                   0.998491        14.18224
0.956                   0.997268        13.69312
0.96                   0.9964481        13.22985
0.964                  0.9961858        12.78061
0.968                  0.9965369        12.33081
0.972                  0.9974471        11.86569
0.976                  0.9987595         11.3731
0.98                    1.000243        10.84573
0.984                   1.001633        10.28245
0.988                   1.002677        9.688483
0.992                   1.003183        9.074528
0.996                    1.00305        8.454883
1                       1.002291        7.845031
1.004                    1.00103        7.258975
1.008                  0.9994824        6.706741
1.012                  0.9979206        6.192488
1.016                   0.996625        5.713548
1.02                   0.9958336        5.260672
1.024                  0.9956978        4.819534
1.028                  0.9962524        4.373275
1.032                   0.997407        3.905608
1.036                  0.9989613        3.403846
1.04                    1.000639        2.861261
1.044                    1.00214        2.278294
1.048                   1.003188        1.662473
1.052                   1.003587        1.027107
1.056                   1.003251        0.389016
1.06                    1.002224      -0.2343107
1.064                   1.000674      -0.8277259
1.068                  0.9988673       -1.381142
1.072                   0.997121       -1.891513
1.076                  0.9957507       -2.363665
1.08                   0.9950106       -2.809724
1.084                  0.9950466       -3.247107
1.088                  0.9958659       -3.695395
1.092                  0.9973334       -4.172696
1.096                  0.9991944       -4.692263
1.1                     1.001119       -5.260056
1.104                   1.002761       -5.873597
1.108                    1.00382       -6.522548
1.112                   1.004093       -7.190458
1.116                   1.003513       -7.857385
1.12                    1.002164       -8.503492
1.124                   1.000268       -9.112145
1.128                  0.9981495       -9.673321
1.132                  0.9961843        -10.1853
1.136                  0.9947287       -10.65559
1.14                   0.9940563       -11.09988
1.144                  0.9943049       -11.53937
1.148                  0.9954467       -11.99697
1.152                  0.9972908       -12.49295
1.156                  0.9995156       -13.04115
1.16                    1.001724       -13.64644
1.164                   1.003517       -14.30388
1.168                   1.004561       -14.99957
1.172                   1.004648       -15.71301
1.176                   1.003737       -16.42053
1.18                     1.00196        -17.0992
1.184                  0.9996102       -17.73078
1.188                  0.9970889       -18.30509
1.192                  0.9948427       -18.82225
1.196                  0.9932822       -19.29326
1.2                     0.992706       -19.73842
1.204                  0.9932412       -20.18389
1.208                  0.9948153        -20.6569
1.212                  0.9971648       -21.18058
1.216                  0.9998804       -21.76957
1.22                    1.002479       -22.42742
1.224                    1.00449       -23.14593
1.228                   1.005537       -23.90668
1.232                   1.005404       -24.68404
1.236                   1.004079       -25.44938
1.24                    1.001758       -26.17574
1.244                  0.9988221       -26.84247
1.248                  0.9957741       -27.43916
1.252                  0.9931562       -27.96814
1.256                  0.9914519        -28.4449
1.26                   0.9909951       -28.89586
1.264                   0.991901       -29.35384
1.268                  0.9940386       -29.85193
1.272                  0.9970482       -30.41714
1.276                   1.000403       -31.06529
1.28                    1.003504       -31.79816
1.284                   1.005781       -32.60332
1.288                   1.006796       -33.45624
1.292                   1.006321       -34.32433
1.296                   1.004379       -35.17206
1.3                     1.001252       -35.96666
1.304                  0.9974434       -36.68377
1.308                  0.9935989       -37.31224
1.312                  0.9904005       -37.85715
1.316                  0.9884427        -38.3402
1.32                   0.9881182       -38.79664
1.324                  0.9895341       -39.26917
1.328                  0.9924809       -39.79982
1.332                  0.9964637       -40.42174
1.336                   1.000786       -41.15299
1.34                    1.004673       -41.99339
1.344                   1.007405       -42.92477
1.348                   1.008443        -43.9141
1.352                   1.007523       -44.91869
1.356                   1.004709       -45.89266
1.36                    1.000396       -46.79404
1.364                  0.9952643       -47.59197
1.368                  0.9901755       -48.27303
1.372                  0.9860326       -48.84548
1.376                  0.9836158       -49.33995
1.38                    0.983428       -49.80538
1.384                  0.9855807       -50.30047
1.388                  0.9897564       -50.88222
1.392                  0.9952527       -51.59468
1.396                   1.001102       -52.46059
1.4                     1.006242        -53.4777
1.404                   1.009691       -54.61959
1.408                   1.010722       -55.84026
1.412                    1.00898       -57.08084
1.416                   1.004562       -58.27785
1.42                    0.998026       -59.37237
1.424                  0.9903351       -60.31989
1.428                  0.9827271       -61.09978
1.432                  0.9765218       -61.72276
1.436                  0.9728814       -62.23358
1.44                   0.9725721       -62.70621
1.444                    0.97578       -63.23122
1.448                   0.982039       -63.89755
1.452                  0.9902884       -64.77445
1.456                  0.9990528       -65.89847
1.46                    1.006691       -67.26833
1.464                   1.011666       -68.84681
1.468                   1.012784       -70.56737
1.472                   1.009393       -72.34305
1.476                   1.001508       -74.07664
1.48                   0.9898676       -75.67228
1.484                  0.9759059       -77.04964
1.488                  0.9616131       -78.16098
1.492                  0.9492706       -79.00964
1.496                  0.9410607       -79.66411
1.5                    0.9385969       -80.25943
1.504                  0.9424908       -80.97868
1.508                  0.9520938       -82.01708
1.512                  0.9655104       -83.54209
1.516                  0.9798663       -85.66503
1.52                     0.99172       -88.43301
1.524                  0.9974911       -91.83663
1.528                    0.99382        -95.8256
1.532                  0.9778277       -100.3233
1.536                  0.9472854       -105.2367
1.54                   0.9007147       -110.4605
1.544                  0.8374376       -115.8726
1.548                   0.757596       -121.3206
1.552                  0.6621586       -126.5875
1.556                   0.552957       -131.3076
1.56                   0.4328658       -134.7305
1.564                  0.3066461       -134.8988
1.568                  0.1856754       -124.8746
1.572                  0.1199885       -81.29528
1.576                   0.189113       -38.98631
1.58                   0.3107578       -29.54025
1.584                   0.437121       -29.90946
1.588                  0.5572019       -33.45171
1.592                  0.6662872       -38.27435
1.596                  0.7614912       -43.64546
1.6                    0.8409563       -49.20566
1.604                  0.9036843       -54.73982
1.608                  0.9495083       -60.09534
1.612                  0.9790912       -65.14865
1.616                  0.9939137       -69.79116
1.62                   0.9962322       -73.92558
1.624                  0.9889872       -77.46984
1.628                  0.9756403       -80.36768
1.632                  0.9599132       -82.60519
1.636                  0.9454163        -84.2284
1.64                   0.9351904       -85.35378
1.644                  0.9312525       -86.16058
1.648                  0.9342868        -86.8604
1.652                  0.9436164       -87.65254
1.656                  0.9574735       -88.68346
1.66                   0.9734689       -90.02644
1.664                     0.9891       -91.68339
1.668                   1.002172       -93.60109
1.672                    1.01108       -95.69122
1.676                   1.014965       -97.84864
1.68                    1.013744       -99.96581
1.684                   1.008071       -101.9446
1.688                  0.9992131       -103.7068
1.692                  0.9888597       -105.2043
1.696                  0.9788726       -106.4272
1.7                    0.9709934       -107.4091
1.704                  0.9665503       -108.2234
1.708                  0.9662285        -108.971
1.712                  0.9699621       -109.7598
1.716                  0.9769819       -110.6825
1.72                   0.9860011       -111.7998
1.724                  0.9954829       -113.1329
1.728                   1.003918       -114.6651
1.732                   1.010062       -116.3498
1.736                   1.013099        -118.121
1.74                    1.012731       -119.9041
1.744                   1.009196        -121.626
1.748                   1.003209       -123.2244
1.752                  0.9958514       -124.6561
1.756                  0.9884003       -125.9043
1.76                   0.9821262       -126.9822
1.764                  0.9780791       -127.9324
1.768                  0.9769073       -128.8198
1.772                   0.978745       -129.7196
1.776                  0.9832042       -130.7022
1.78                    0.989464       -131.8198
1.784                  0.9964384       -133.0986
1.788                   1.002975       -134.5364
1.792                   1.008046        -136.106
1.796                   1.010902       -137.7615
1.8                     1.011169       -139.4465
1.804                   1.008889       -141.1025
1.808                   1.004504       -142.6765
1.812                  0.9987819       -144.1289
1.816                  0.9926944       -145.4393
1.82                   0.9872655       -146.6105
1.824                  0.9834003       -147.6694
1.828                   0.981729       -148.6625
1.832                  0.9824977       -149.6477
1.836                  0.9855303       -150.6834
1.84                   0.9902713       -151.8173
1.844                   0.995896       -153.0784
1.848                   1.001463       -154.4729
1.852                   1.006073       -155.9854
1.856                   1.009014       -157.5826
1.86                    1.009856       -159.2199
1.864                   1.008515       -160.8475
1.868                   1.005251       -162.4183
1.872                   1.000628       -163.8944
1.876                  0.9954241       -165.2523
1.88                   0.9905094       -166.4878
1.884                  0.9867024       -167.6172
1.888                  0.9846318       -168.6749
1.892                  0.9846262       -169.7078
1.896                  0.9866584       -170.7667
1.9                    0.9903558       -171.8966
1.904                  0.9950741       -173.1285
1.908                   1.000016       -174.4751
1.912                    1.00437       -175.9293
1.916                   1.007441       -177.4673
1.92                    1.008755       -179.0523
1.924                   1.008128        179.3586
1.928                   1.005686         177.809
1.932                   1.001846        176.3363
1.936                  0.9972452        174.9662
1.94                   0.9926482        173.7087
1.944                  0.9888179        172.5553
1.948                  0.9863899        171.4802
1.952                  0.9857612        170.4444
1.956                  0.9870202        169.4025
1.96                    0.989934        168.3112
1.964                  0.9939939        167.1373
1.968                  0.9985096         165.863
1.972                    1.00273        164.4885
1.976                   1.005969        163.0305
1.98                     1.00771        161.5192
1.984                   1.007687        159.9928
1.988                   1.005917        158.4923
1.992                   1.002698        157.0547
1.996                   0.998563        155.7083
2                       0.994194        154.4676
2.004                  0.9903169        153.3304
2.008                  0.9875778        152.2778
2.012                  0.9864328        151.2767
2.016                   0.987066        150.2857
2.02                   0.9893572        149.2625
2.024                  0.9929061        148.1719
2.028                   0.997106        146.9919
2.032                   1.001251        145.7168
2.036                   1.004656        144.3574
2.04                    1.006765        142.9386
2.044                    1.00724        141.4951
2.048                   1.006006        140.0657
2.052                   1.003265         138.688
2.056                  0.9994651        137.3923
2.06                   0.9952272        136.1972
2.064                   0.991253        135.1059
2.068                  0.9882055         134.105
2.072                  0.9865956        133.1661
2.076                   0.986692        132.2508
2.08                   0.9884713        131.3171
2.084                  0.9916224        130.3278
2.088                  0.9956047        129.2567
2.092                  0.9997434        128.0928
2.096                   1.003345         126.842
2.1                     1.005813        125.5247
2.104                   1.006738        124.1727
2.108                   1.005963        122.8237
2.112                   1.003607         121.516
2.116                   1.000044        120.2826
2.12                   0.9958522         119.146
2.124                  0.9917205        118.1142
2.128                  0.9883369        117.1786
2.132                  0.9862722        116.3148
2.136                  0.9858767        115.4864
2.14                   0.9872162        114.6512
2.144                  0.9900585        113.7692
2.148                  0.9939153        112.8099
2.152                  0.9981286        111.7573
2.156                   1.001985        110.6124
2.16                    1.004834        109.3917
2.164                   1.006191        108.1251
2.168                   1.005815        106.8499
2.172                   1.003744         105.606
2.176                   1.000291        104.4296
2.18                   0.9960012         103.348
2.184                  0.9915686        102.3741
2.188                  0.9877249        101.5042
2.192                  0.9851168        100.7175
2.196                  0.9841905        99.97852
2.2                    0.9851083        99.24364
2.204                  0.9877165        98.46892
2.208                  0.9915691        97.61814
2.212                  0.9960082        96.66925
2.216                   1.000276        95.61771
2.22                    1.003644        94.47663
2.224                   1.005526        93.27403
2.228                   1.005576        92.04817
2.232                   1.003737        90.84199
2.236                    1.00026        89.69673
2.24                   0.9956662        88.64584
2.244                  0.9906755        87.70915
2.248                   0.986096        86.88888
2.252                  0.9826907        86.16779
2.256                  0.9810425        85.51099
2.26                   0.9814452        84.87139
2.264                  0.9838423        84.19821
2.268                  0.9878311        83.44633
2.272                  0.9927297        82.58456
2.276                  0.9976942         81.6008
2.28                    1.001859         80.5033
2.284                   1.004476        79.31878
2.288                   1.005032        78.08791
2.292                   1.003331        76.85944
2.296                  0.9995312        75.68338
2.3                    0.9941334        74.60387
2.304                  0.9879195         73.6521
2.308                  0.9818426         72.8401
2.312                  0.9768797        72.15653
2.316                  0.9738631        71.56637
2.32                   0.9733253         71.0151
2.324                  0.9753841        70.43786
2.328                  0.9797055        69.77149
2.332                  0.9855476        68.96618
2.336                  0.9918812        67.99428
2.34                   0.9975561        66.85417
2.344                   1.001481        65.56958
2.348                   1.002791        64.18549
2.352                   1.000979        62.76185