! TOUCHSTONE file generated by CST MICROWAVE STUDIO
! Date and time: Tue Jun  7 22:11:12 2022
! Project name: AppElm_antenne_patch_FR4.cst
! Parameters = {L=45; W=58.5; e=0.035; h=1.6; lambda=0.190476; ls=120; w0=1.6; w1=0.3998; ws=120; y0=20; y1=23.81}
! Header version: 2018
! Port assignment regex: !\s*Touchstone port\s*([0-9]+)\s*=\s*(CST MWS port|CST DS port)\s*([0-9]+|Zmin|Zmax)\s*\(\"(.*)\"\)(\s*mode\s*([0-9]+))?.*
! Touchstone port assignment:
! Touchstone port 1 = CST MWS port 1 ("")
# GHz S MA R 50
0                      0.9883806              -0
0.004                  0.9890584       -9.920208
0.008                  0.9910006       -19.75287
0.012                  0.9939464       -29.41475
0.016                  0.9975054       -38.83057
0.02                    1.001214       -47.93541
0.024                   1.004602       -56.67587
0.028                   1.007252        -65.0101
0.032                   1.008858       -72.90731
0.036                   1.009257       -80.34691
0.04                    1.008448       -87.31802
0.044                   1.006587       -93.81911
0.048                   1.003965       -99.85798
0.052                   1.000966       -105.4519
0.056                  0.9980119       -110.6276
0.06                   0.9955063       -115.4201
0.064                  0.9937752       -119.8714
0.068                  0.9930227       -124.0279
0.072                  0.9933045       -127.9365
0.076                  0.9945235       -131.6414
0.08                   0.9964516       -135.1804
0.084                  0.9987687       -138.5828
0.088                   1.001115       -141.8681
0.092                   1.003144       -145.0463
0.096                   1.004574       -148.1191
0.1                     1.005226       -151.0822
0.104                   1.005044       -153.9279
0.108                   1.004095       -156.6482
0.112                   1.002562        -159.237
0.116                   1.000705       -161.6925
0.12                   0.9988248       -164.0188
0.124                  0.9972152       -166.2257
0.128                  0.9961174       -168.3289
0.132                  0.9956836        -170.348
0.136                  0.9959561       -172.3041
0.14                   0.9968641       -174.2171
0.144                  0.9982385       -176.1038
0.148                   0.999843        -177.975
0.152                   1.001414       -179.8355
0.156                   1.002703        178.3161
0.16                    1.003515        176.4866
0.164                   1.003738        174.6862
0.168                   1.003356        172.9267
0.172                    1.00245        171.2189
0.176                    1.00118        169.5709
0.18                   0.9997636        167.9867
0.184                  0.9984339         166.465
0.188                  0.9974054        164.9992
0.192                  0.9968386        163.5785
0.196                  0.9968135        162.1895
0.2                    0.9973202        160.8181
0.204                  0.9982607        159.4516
0.208                  0.9994685         158.081
0.212                   1.000737        156.7019
0.216                   1.001855        155.3147
0.22                    1.002643        153.9249
0.224                   1.002976        152.5411
0.228                   1.002811        151.1739
0.232                   1.002183        149.8342
0.236                   1.001206        148.5307
0.24                    1.000048        147.2689
0.244                  0.9989046        146.0502
0.248                  0.9979664        144.8712
0.252                  0.9973873        143.7245
0.256                  0.9972581        142.5997
0.26                   0.9975927        141.4852
0.264                  0.9983267        140.3702
0.268                  0.9993293        139.2465
0.272                   1.000427        138.1094
0.276                   1.001433         136.959
0.28                    1.002179        135.7993
0.284                   1.002543        134.6378
0.288                   1.002468        133.4841
0.292                   1.001973        132.3482
0.296                   1.001145        131.2389
0.3                     1.000129        130.1621
0.304                  0.9990972        129.1199
0.308                  0.9982264        128.1102
0.312                  0.9976629        127.1272
0.316                  0.9975001        126.1618
0.32                   0.9977617        125.2038
0.324                  0.9983985        124.2434
0.328                  0.9992977        123.2726
0.332                   1.000303         122.287
0.336                   1.001241         121.286
0.34                    1.001952        120.2732
0.344                   1.002317        119.2555
0.348                   1.002276        118.2418
0.352                   1.001839        117.2417
0.356                   1.001084        116.2636
0.36                    1.000143        115.3134
0.364                  0.9991774        114.3937
0.368                  0.9983551        113.5027
0.372                  0.9978179        112.6352
0.376                  0.9976573        111.7829
0.38                   0.9978996        110.9362
0.384                   0.998501        110.0854
0.388                  0.9993552        109.2233
0.392                   1.000313        108.3452
0.396                   1.001209        107.4508
0.4                     1.001887        106.5434
0.404                   1.002232        105.6297
0.408                   1.002184        104.7184
0.412                   1.001754        103.8188
0.416                   1.001017        102.9392
0.42                      1.0001        102.0854
0.424                  0.9991638        101.2599
0.428                  0.9983713         100.461
0.432                   0.997861        99.68349
0.436                  0.9977214        98.91924
0.44                   0.9979765        98.15876
0.444                   0.998581         97.3928
0.448                  0.9994284        96.61405
0.452                    1.00037        95.81833
0.456                    1.00124        95.00537
0.46                    1.001888        94.17873
0.464                     1.0022        93.34517
0.468                   1.002122         92.5135
0.472                   1.001667        91.69299
0.476                   1.000914        90.89182
0.48                   0.9999947        90.11564
0.484                  0.9990704        89.36657
0.488                  0.9983034        88.64274
0.492                  0.9978291        87.93859
0.496                  0.9977317        87.24581
0.5                    0.9980287        86.55482
0.504                  0.9986681        85.85644
0.508                  0.9995371        85.14356
0.512                   1.000482        84.41238
0.516                   1.001337        83.66304
0.52                     1.00195        82.89957
0.524                   1.002213         82.1292
0.528                   1.002077        81.36098
0.532                   1.001566        80.60433
0.536                   1.000768        79.86738
0.54                   0.9998206        79.15545
0.544                  0.9988914        78.47025
0.548                  0.9981446        77.80931
0.552                  0.9977128        77.16656
0.556                  0.9976736        76.53315
0.56                   0.9980349        75.89928
0.564                  0.9987334        75.25569
0.568                  0.9996457        74.59554
0.572                    1.00061        73.91548
0.576                   1.001455        73.21633
0.58                     1.00203        72.50285
0.584                   1.002232        71.78284
0.588                   1.002023        71.06589
0.592                   1.001438        70.36158
0.596                   1.000579        69.67797
0.6                    0.9995949        69.02001
0.604                  0.9986614         68.3887
0.608                  0.9979449        67.78084
0.612                  0.9975745        67.18947
0.616                  0.9976187        66.60512
0.62                   0.9980717        66.01754
0.624                  0.9988545        65.41746
0.628                  0.9998288        64.79837
0.632                   1.000822        64.15759
0.636                   1.001655        63.49681
0.64                    1.002181        62.82174
0.644                   1.002302        62.14104
0.648                   1.001995        61.46491
0.652                    1.00131        60.80323
0.656                   1.000367        60.16389
0.66                   0.9993308        59.55131
0.664                  0.9983859        58.96566
0.668                   0.997702        58.40266
0.672                  0.9974036        57.85433
0.676                  0.9975466        57.31038
0.68                   0.9981083           56.76
0.684                  0.9989897        56.19397
0.688                   1.000035        55.60619
0.692                   1.001056        54.99487
0.696                   1.001871        54.36279
0.7                     1.002332        53.71681
0.704                   1.002353        53.06662
0.708                   1.001926        52.42312
0.712                   1.001123        51.79644
0.716                   1.000085        51.19423
0.72                   0.9989946        50.62019
0.724                  0.9980474        50.07337
0.728                  0.9974148        49.54821
0.732                  0.9972137        49.03546
0.736                  0.9974843        48.52383
0.74                   0.9981812        48.00206
0.744                  0.9991821        47.46096
0.748                   1.000309        46.89508
0.752                   1.001359        46.30374
0.756                   1.002143        45.69108
0.76                    1.002518        45.06533
0.764                   1.002412         44.4374
0.768                   1.001838        43.81893
0.772                   1.000894        43.22032
0.776                  0.9997435         42.6488
0.78                   0.9985913        42.10717
0.784                  0.9976439         41.5931
0.788                   0.997074        41.09946
0.792                  0.9969879        40.61558
0.796                   0.997405        40.12906
0.8                    0.9982539        39.62817
0.804                  0.9993839        39.10388
0.808                   1.000593        38.55164
0.812                   1.001662        37.97208
0.816                   1.002398          37.371
0.82                    1.002662        36.75821
0.824                   1.002403        36.14593
0.828                   1.001658        35.54658
0.832                   1.000556        34.97069
0.836                  0.9992895        34.42491
0.84                   0.9980846        33.91079
0.844                  0.9971593        33.42434
0.848                  0.9966843         32.9566
0.852                   0.996751        32.49521
0.856                  0.9973528        32.02663
0.86                   0.9983862        31.53868
0.864                  0.9996679        31.02274
0.868                   1.000968        30.47539
0.872                   1.002052        29.89896
0.876                   1.002721        29.30112
0.88                    1.002849        28.69358
0.884                   1.002405        28.08995
0.888                   1.001462         27.5035
0.892                    1.00018        26.94474
0.896                  0.9987858        26.41952
0.9                     0.997529        25.92787
0.904                  0.9966387        25.46377
0.908                  0.9962805        25.01615
0.912                  0.9965258        24.57079
0.916                  0.9973366        24.11296
0.92                   0.9985712        23.63015
0.924                    1.00001        23.11437
0.928                   1.001393        22.56365
0.932                   1.002468        21.98236
0.936                   1.003037         21.3804
0.94                     1.00299        20.77152
0.944                   1.002323         20.1709
0.948                   1.001148        19.59255
0.952                  0.9996671         19.0468
0.956                  0.9981426        18.53839
0.96                   0.9968495        18.06537
0.964                   0.996026        17.61933
0.968                  0.9958287        17.18668
0.972                  0.9963024        16.75115
0.976                  0.9973697        16.29675
0.98                    0.998844        15.81078
0.984                   1.000462        15.28621
0.988                   1.001933        14.72292
0.992                   1.002987        14.12772
0.996                   1.003428        13.51312
1                       1.003166        12.89522
1.004                   1.002235        12.29088
1.008                   1.000791        11.71484
1.012                   0.999085        11.17708
1.016                  0.9974193        10.68084
1.02                   0.9960962        10.22184
1.024                  0.9953615        9.788748
1.028                  0.9953578        9.365134
1.032                   0.996096        8.932425
1.036                  0.9974512         8.47338
1.04                   0.9991841        7.975334
1.044                   1.000983        7.432545
1.048                   1.002522        6.847219
1.052                   1.003516          6.2291
1.056                   1.003774        5.593747
1.06                    1.003235        4.959888
1.064                   1.001978        4.346218
1.068                   1.000215        3.768152
1.072                  0.9982517        3.235003
1.076                  0.9964383        2.748067
1.08                   0.9951063        2.300068
1.084                  0.9945066        1.876169
1.088                  0.9947612        1.456532
1.092                  0.9958375        1.019956
1.096                  0.9975516       0.5478814
1.1                    0.9996006      0.02788057
1.104                   1.001617      -0.5440477
1.108                   1.003232       -1.162792
1.112                   1.004148       -1.815063
1.116                   1.004182       -2.481698
1.12                     1.00331       -3.140839
1.124                   1.001667       -3.771757
1.128                  0.9995298       -4.358388
1.132                   0.997272         -4.8923
1.136                  0.9952985       -5.374686
1.14                   0.9939733       -5.816503
1.144                    0.99355       -6.236855
1.148                  0.9941229       -6.659625
1.152                   0.995604       -7.109029
1.156                  0.9977372       -7.605004
1.16                    1.000143       -8.159446
1.164                   1.002386       -8.774046
1.168                   1.004055       -9.440045
1.172                   1.004831       -10.13979
1.176                   1.004552       -10.84973
1.18                    1.003239       -11.54435
1.184                   1.001097       -12.20046
1.188                  0.9984878       -12.80128
1.192                  0.9958668       -13.33971
1.196                  0.9937068       -13.82019
1.2                    0.9924104        -14.2584
1.204                  0.9922334       -14.67893
1.208                  0.9932316       -15.11076
1.212                  0.9952459       -15.58188
1.216                  0.9979273       -16.11384
1.22                    1.000799       -16.71779
1.224                   1.003342        -17.3924
1.228                   1.005086       -18.12429
1.232                   1.005695        -18.8903
1.236                   1.005025       -19.66135
1.24                    1.003157       -20.40725
1.244                   1.000386       -21.10167
1.248                  0.9971804       -21.72691
1.252                  0.9941019        -22.2775
1.256                    0.99171       -22.76203
1.26                   0.9904577        -23.2024
1.264                  0.9906023       -23.63029
1.268                  0.9921495        -24.0814
1.272                  0.9948459       -24.58857
1.276                  0.9982211       -25.17541
1.28                     1.00167       -25.85195
1.284                   1.004563        -26.6129
1.288                   1.006354       -27.43873
1.292                    1.00668         -28.299
1.296                   1.005423       -29.15727
1.3                     1.002742       -29.97689
1.304                  0.9990564       -30.72709
1.308                  0.9949783       -31.38862
1.312                    0.99122         -31.958
1.316                  0.9884662       -32.44951
1.32                    0.987246       -32.89372
1.324                  0.9878245        -33.3326
1.328                  0.9901419       -33.81164
1.332                  0.9938149       -34.37097
1.336                  0.9982005       -35.03754
1.34                    1.002511        -35.8202
1.344                   1.005952       -36.70842
1.348                   1.007861       -37.67428
1.352                   1.007824       -38.67714
1.356                   1.005751        -39.6699
1.36                    1.001904       -40.60622
1.364                  0.9968681       -41.44811
1.368                  0.9914724       -42.17305
1.372                  0.9866555       -42.77961
1.376                  0.9833017       -43.28994
1.38                   0.9820703       -43.74772
1.384                  0.9832545       -44.21103
1.388                  0.9867069       -44.74124
1.392                    0.99185       -45.39075
1.396                  0.9977745        -46.1927
1.4                     1.003399       -47.15512
1.404                   1.007656       -48.26016
1.408                   1.009679       -49.46751
1.412                   1.008943       -50.72073
1.416                   1.005369       -51.95532
1.42                   0.9993562       -53.10794
1.424                  0.9917525       -54.12631
1.428                  0.9837451       -54.97941
1.432                  0.9766833       -55.66618
1.436                  0.9718433       -56.22047
1.44                   0.9701757       -56.70899
1.444                  0.9720893        -57.2209
1.448                   0.977331       -57.85045
1.452                  0.9850048       -58.67741
1.456                   0.993717       -59.75161
1.46                    1.001819       -61.08484
1.464                    1.00768       -62.65085
1.468                   1.009954       -64.39098
1.472                   1.007788       -66.22291
1.476                   1.000976       -68.05077
1.48                   0.9900395        -69.7764
1.484                  0.9762222       -71.31306
1.488                  0.9613801       -72.60186
1.492                  0.9477511        -73.6305
1.496                  0.9375917       -74.44969
1.5                    0.9327154       -75.17911
1.504                  0.9340318       -75.99485
1.508                  0.9412267       -77.09718
1.512                  0.9526999       -78.66966
1.516                  0.9657777       -80.84639
1.52                   0.9771052       -83.69835
1.524                  0.9830883       -87.23846
1.528                  0.9802783       -91.43693
1.532                  0.9656602       -96.23836
1.536                  0.9368424       -101.5758
1.54                   0.8921674       -107.3804
1.544                  0.8307636       -113.5872
1.548                  0.7525527       -120.1387
1.552                  0.6582252       -126.9884
1.556                   0.549186       -134.1063
1.56                   0.4274788       -141.4955
1.564                  0.2956932       -149.2597
1.568                  0.1568819       -158.0386
1.572                 0.01624032        166.8194
1.576                  0.1293593        13.86984
1.58                    0.269128        4.571008
1.584                  0.4025092       -3.336775
1.588                  0.5263483       -10.83332
1.592                  0.6379479       -18.06427
1.596                  0.7351348       -25.04385
1.6                    0.8163555        -31.7462
1.604                  0.8807576       -38.12674
1.608                    0.92825       -44.12896
1.612                  0.9595369       -49.68772
1.616                  0.9761215        -54.7324
1.62                   0.9802691       -59.19214
1.624                  0.9749151       -63.00471
1.628                  0.9634977       -66.13002
1.632                  0.9496924       -68.56803
1.636                  0.9370376        -70.3765
1.64                   0.9284823       -71.68036
1.644                  0.9259455       -72.66289
1.648                  0.9300339       -73.53481
1.652                  0.9400332       -74.49059
1.656                  0.9541888        -75.6707
1.66                   0.9701704       -77.14333
1.664                  0.9855644       -78.90755
1.668                  0.9982785       -80.90941
1.672                   1.006813       -83.06178
1.676                   1.010402       -85.26197
1.68                    1.009042       -87.40594
1.684                   1.003443       -89.39999
1.688                  0.9948971       -91.17133
1.692                  0.9850834       -92.67779
1.696                  0.9758149        -93.9159
1.7                    0.9687474       -94.92415
1.704                  0.9650994        -95.7788
1.708                  0.9654415       -96.58003
1.712                  0.9696128       -97.43177
1.716                  0.9767886       -98.42044
1.72                   0.9856768       -99.59986
1.724                   0.994782       -100.9852
1.728                   1.002673       -102.5557
1.732                   1.008207        -104.263
1.736                   1.010673       -106.0412
1.74                    1.009876       -107.8181
1.744                   1.006131       -109.5243
1.748                   1.000204       -111.1027
1.752                  0.9931813       -112.5166
1.756                  0.9863046       -113.7555
1.76                   0.9807635       -114.8384
1.764                  0.9774948       -115.8113
1.768                  0.9770193       -116.7394
1.772                  0.9793573       -117.6947
1.776                  0.9840396       -118.7412
1.78                   0.9902159       -119.9241
1.784                   0.996822       -121.2621
1.788                   1.002775       -122.7477
1.792                    1.00715       -124.3502
1.796                   1.009313        -126.023
1.8                     1.009006       -127.7114
1.804                   1.006369       -129.3602
1.808                   1.001908       -130.9221
1.812                  0.9964131        -132.364
1.816                  0.9908302       -133.6724
1.82                   0.9861082       -134.8566
1.824                  0.9830385       -135.9475
1.828                  0.9821184       -136.9929
1.832                  0.9834663       -138.0482
1.836                  0.9868085        -139.166
1.84                   0.9915399       -140.3865
1.844                  0.9968432       -141.7308
1.848                   1.001836       -143.1986
1.852                    1.00572       -144.7701
1.856                   1.007903       -146.4103
1.86                    1.008081       -148.0753
1.864                    1.00628        -149.719
1.868                   1.002841       -151.2993
1.872                  0.9983609       -152.7851
1.876                  0.9936043       -154.1604
1.88                   0.9893732       -155.4277
1.884                  0.9863765       -156.6082
1.888                  0.9851067       -157.7382
1.892                  0.9857555       -158.8632
1.896                  0.9881841       -160.0285
1.9                    0.9919541       -161.2716
1.904                  0.9964124       -162.6154
1.908                    1.00081       -164.0651
1.912                    1.00443       -165.6085
1.916                   1.006699       -167.2187
1.92                    1.007277       -168.8595
1.924                     1.0061       -170.4906
1.928                   1.003388       -172.0736
1.932                  0.9996053        -173.578
1.936                  0.9953879       -174.9854
1.94                   0.9914418       -176.2934
1.944                  0.9884256       -177.5158
1.948                  0.9868382       -178.6813
1.952                  0.9869327       -179.8282
1.956                   0.988673        179.0029
1.96                   0.9917439        177.7758
1.964                  0.9956121        176.4659
1.968                  0.9996228        175.0636
1.972                   1.003112        173.5751
1.976                   1.005516        172.0209
1.98                    1.006457        170.4317
1.984                     1.0058        168.8435
1.988                   1.003668        167.2923
1.992                   1.000423        165.8086
1.996                  0.9966083        164.4127
2                      0.9928598        163.1112
2.004                  0.9898045        161.8957
2.008                  0.9879523        160.7435
2.012                  0.9876074        159.6215
2.016                   0.988816        158.4921
2.02                   0.9913585        157.3201
2.024                  0.9947922        156.0791
2.028                  0.9985315        154.7557
2.032                    1.00195        153.3515
2.036                   1.004483        151.8821
2.04                    1.005722        150.3737
2.044                   1.005469        148.8592
2.048                   1.003773        147.3731
2.052                   1.000916        145.9462
2.056                  0.9973711        144.6005
2.06                   0.9937274        143.3464
2.064                  0.9905931        142.1794
2.068                  0.9884935        141.0815
2.072                  0.9877794        140.0232
2.076                  0.9885643        138.9689
2.08                   0.9907045        137.8837
2.084                  0.9938261        136.7393
2.088                  0.9973928        135.5192
2.092                     1.0008        134.2209
2.096                   1.003477        132.8559
2.1                     1.004978        131.4474
2.104                   1.005055        130.0261
2.108                   1.003691        128.6256
2.112                   1.001108        127.2773
2.116                  0.9977278        126.0055
2.12                   0.9941078        124.8234
2.124                  0.9908522        123.7301
2.128                  0.9885091        122.7111
2.132                  0.9874748        121.7392
2.136                  0.9879224        120.7803
2.14                   0.9897703        119.7985
2.144                  0.9926958        118.7635
2.148                  0.9961938        117.6556
2.152                  0.9996651        116.4689
2.156                   1.002519        115.2116
2.16                    1.004269        113.9046
2.164                   1.004612        112.5775
2.168                   1.003477         111.264
2.172                   1.001033        109.9972
2.176                  0.9976684        108.8038
2.18                     0.99393        107.7001
2.184                  0.9904365        106.6888
2.188                   0.987775        105.7579
2.192                  0.9863989        104.8818
2.196                   0.986545        104.0261
2.2                    0.9881887        103.1531
2.204                  0.9910457        102.2293
2.208                  0.9946224        101.2309
2.212                  0.9983016        100.1483
2.216                   1.001448        98.98695
2.22                    1.003514        97.76596
2.224                   1.004128        96.51506
2.228                   1.003151        95.26971
2.232                   1.000707        94.06584
2.236                  0.9971626         92.9343
2.24                   0.9930767        91.89582
2.244                   0.989113        90.95709
2.248                  0.9859327         90.1087
2.252                  0.9840791        89.32573
2.256                  0.9838778        88.57163
2.26                   0.9853731        87.80447
2.264                  0.9883132        86.98471
2.268                  0.9921922         86.0824
2.272                  0.9963356        85.08238
2.276                   1.000014        83.98654
2.28                    1.002566        82.81309
2.284                     1.0035        81.59335
2.288                   1.002581        80.36705
2.292                  0.9998665        79.17641
2.296                  0.9957111        78.06008
2.3                    0.9907209        77.04686
2.304                  0.9856682        76.15028
2.308                  0.9813709        75.36486
2.312                   0.978554        74.66533
2.316                   0.977716        74.00948
2.32                    0.979026        73.34504
2.324                  0.9822789        72.61909
2.328                  0.9869184        71.78781
2.332                  0.9921244        70.82441
2.336                  0.9969459        69.72348
2.34                    1.000454        68.50134
2.344                   1.001885        67.19333
2.348                   1.000769        65.84876
2.352                   0.997005        64.52437