! TOUCHSTONE file generated by CST MICROWAVE STUDIO
! Date and time: Tue Jun  7 22:11:21 2022
! Project name: AppElm_antenne_patch_FR4.cst
! Parameters = {L=45; W=58.5; e=0.035; h=1.6; lambda=0.190476; ls=120; w0=1.6; w1=0.6663; ws=120; y0=20; y1=23.81}
! Header version: 2018
! Port assignment regex: !\s*Touchstone port\s*([0-9]+)\s*=\s*(CST MWS port|CST DS port)\s*([0-9]+|Zmin|Zmax)\s*\(\"(.*)\"\)(\s*mode\s*([0-9]+))?.*
! Touchstone port assignment:
! Touchstone port 1 = CST MWS port 1 ("")
# GHz S MA R 50
0                      0.9901219              -0
0.004                  0.9907299       -9.941009
0.008                   0.992468        -19.7949
0.012                  0.9950923       -29.47877
0.016                  0.9982383       -38.91747
0.02                    1.001477       -48.04599
0.024                   1.004377        -56.8108
0.028                   1.006564       -65.16993
0.032                   1.007774       -73.09264
0.036                   1.007883       -80.55884
0.04                    1.006921       -87.55854
0.044                   1.005065       -94.09171
0.048                   1.002609       -100.1681
0.052                   0.999926       -105.8071
0.056                  0.9974063       -111.0374
0.06                   0.9954049       -115.8958
0.064                  0.9941878       -120.4249
0.068                  0.9938939       -124.6702
0.072                  0.9945183       -128.6768
0.076                  0.9959174       -132.4853
0.08                   0.9978372       -136.1298
0.084                  0.9999577       -139.6353
0.088                   1.001945       -143.0172
0.092                   1.003502       -146.2825
0.096                   1.004412       -149.4311
0.1                      1.00457       -152.4584
0.104                   1.003988        -155.358
0.108                   1.002795       -158.1242
0.112                   1.001209       -160.7549
0.116                     0.9995       -163.2524
0.12                   0.9979499       -165.6251
0.124                  0.9968034       -167.8867
0.128                  0.9962316       -170.0553
0.132                  0.9963053       -172.1509
0.136                  0.9969872       -174.1934
0.14                   0.9981416       -176.1998
0.144                  0.9995606       -178.1822
0.148                   1.001001        179.8531
0.152                   1.002224        177.9059
0.156                   1.003038        175.9811
0.16                    1.003322        174.0877
0.164                   1.003047        172.2361
0.168                   1.002276        170.4364
0.172                   1.001154        168.6963
0.176                  0.9998767        167.0196
0.18                   0.9986634        165.4053
0.184                   0.997716        163.8474
0.188                  0.9971876        162.3358
0.192                  0.9971563        160.8577
0.196                  0.9976144           159.4
0.2                    0.9984714        157.9505
0.204                  0.9995711        156.5008
0.208                   1.000721        155.0466
0.212                   1.001724        153.5885
0.216                   1.002414        152.1314
0.22                     1.00268        150.6837
0.224                   1.002485        149.2551
0.228                   1.001873        147.8556
0.232                   1.000953         146.493
0.236                  0.9998893         145.172
0.24                   0.9988645        143.8931
0.244                  0.9980536        142.6524
0.248                  0.9975923        141.4425
0.252                  0.9975539        140.2532
0.256                  0.9979381        139.0739
0.26                   0.9986712        137.8945
0.264                  0.9996214        136.7079
0.268                   1.000621        135.5107
0.272                   1.001497        134.3037
0.276                     1.0021        133.0915
0.28                    1.002331        131.8818
0.284                   1.002153        130.6835
0.288                   1.001603         129.506
0.292                   1.000778        128.3567
0.296                  0.9998242        127.2402
0.3                    0.9989071        126.1572
0.304                  0.9981855        125.1046
0.308                  0.9977827        124.0759
0.312                  0.9977657         123.062
0.316                  0.9981338        122.0533
0.32                   0.9988192         121.041
0.324                  0.9996998        120.0186
0.328                    1.00062        118.9833
0.332                   1.001421         117.936
0.336                   1.001963        116.8812
0.34                    1.002155        115.8262
0.344                   1.001966        114.7798
0.348                   1.001431        113.7506
0.352                   1.000645        112.7458
0.356                  0.9997452        111.7696
0.36                     0.99889        110.8227
0.364                  0.9982284         109.902
0.368                  0.9978755        109.0013
0.372                  0.9978918         108.112
0.376                   0.998273        107.2249
0.38                   0.9989507        106.3319
0.384                  0.9998049         105.427
0.388                   1.000686        104.5077
0.392                   1.001438        103.5752
0.396                   1.001933        102.6342
0.4                     1.002083        101.6919
0.404                   1.001864        100.7571
0.408                   1.001315        99.83798
0.412                   1.000532        98.94149
0.416                  0.9996521        98.07153
0.42                   0.9988306        97.22855
0.424                  0.9982117        96.40926
0.428                  0.9979042        95.60728
0.432                  0.9979621        94.81413
0.436                   0.998375        94.02084
0.44                   0.9990699        93.21948
0.444                  0.9999241        92.40456
0.448                   1.000787        91.57397
0.452                   1.001507        90.72932
0.456                   1.001958        89.87557
0.46                    1.002061        89.02027
0.464                   1.001796        88.17204
0.468                   1.001211        87.33922
0.472                   1.000407        86.52837
0.476                  0.9995244        85.74313
0.48                   0.9987195        84.98349
0.484                  0.9981341         84.2458
0.488                  0.9978722        83.52329
0.492                  0.9979807        82.80737
0.496                  0.9984409        82.08899
0.5                    0.9991719         81.3604
0.504                   1.000045        80.61646
0.508                   1.000905        79.85555
0.512                   1.001601        79.07976
0.516                   1.002008         78.2946
0.52                    1.002056        77.50796
0.524                   1.001732        76.72872
0.528                   1.001094        75.96518
0.532                    1.00025        75.22378
0.536                  0.9993509        74.50773
0.54                   0.9985535        73.81649
0.544                  0.9979999        73.14583
0.548                  0.9977892        72.48851
0.552                  0.9979602        71.83546
0.556                  0.9984838        71.17757
0.56                   0.9992682        70.50716
0.564                   1.000175        69.81945
0.568                   1.001043        69.11333
0.572                   1.001718        68.39162
0.576                   1.002081        67.66045
0.58                    1.002064        66.92821
0.584                   1.001669        66.20418
0.588                   1.000962        65.49677
0.592                   1.000067        64.81215
0.596                   0.999141        64.15311
0.6                    0.9983475        63.51847
0.604                  0.9978289        62.90324
0.608                  0.9976789        62.29947
0.612                  0.9979266        61.69763
0.616                    0.99853        61.08826
0.62                   0.9993831        60.46386
0.624                   1.000335        59.81999
0.628                   1.001218        59.15625
0.632                   1.001874        58.47622
0.636                   1.002184        57.78685
0.64                    1.002092        57.09726
0.644                    1.00161        56.41712
0.648                   1.000821        55.75499
0.652                  0.9998613        55.11682
0.656                   0.998901        54.50482
0.66                   0.9981106        53.91703
0.664                  0.9976325        53.34754
0.668                  0.9975545        52.78755
0.672                  0.9978936        52.22684
0.676                  0.9985921        51.65573
0.68                   0.9995275        51.06673
0.684                   1.000535        50.45595
0.688                   1.001434        49.82375
0.692                   1.002065        49.17469
0.696                   1.002312        48.51671
0.7                     1.002129        47.85971
0.704                   1.001543        47.21391
0.708                   1.000654          46.588
0.712                  0.9996186        45.98764
0.716                  0.9986181        45.41436
0.72                   0.9978317        44.86522
0.724                  0.9974023        44.33324
0.728                  0.9974098        43.80856
0.732                  0.9978567        43.28024
0.736                  0.9986663        42.73825
0.74                   0.9996967        42.17524
0.744                   1.000765        41.58792
0.748                    1.00168        40.97763
0.752                   1.002278        40.35006
0.756                   1.002448        39.71428
0.76                    1.002155        39.08115
0.764                   1.001446        38.46147
0.768                   1.000442        37.86406
0.772                  0.9993178        37.29421
0.776                  0.9982732        36.75259
0.78                   0.9974953         36.2351
0.784                  0.9971265        35.73346
0.788                  0.9972368        35.23665
0.792                  0.9978111        34.73284
0.796                  0.9987504        34.21166
0.8                    0.9998894        33.66597
0.804                   1.001026        33.09324
0.808                   1.001955        32.49596
0.812                   1.002509        31.88116
0.816                   1.002585        31.25925
0.82                    1.002162        30.64217
0.824                   1.001308        30.04134
0.828                   1.000171        29.46568
0.832                  0.9989493        28.91997
0.836                  0.9978593        28.40387
0.84                   0.9970981        27.91188
0.844                  0.9968064        27.43419
0.848                  0.9970416         26.9584
0.852                  0.9977674        26.47174
0.856                  0.9988582        25.96348
0.86                    1.000121        25.42682
0.864                   1.001332        24.86015
0.868                   1.002273        24.26732
0.872                   1.002771        23.65698
0.876                   1.002732        23.04105
0.88                    1.002155        22.43268
0.884                   1.001134          21.844
0.888                  0.9998446        21.28396
0.892                  0.9985135        20.75669
0.896                  0.9973782        20.26061
0.9                    0.9966447        19.78852
0.904                  0.9964506        19.32884
0.908                  0.9968377        18.86759
0.912                  0.9977433        18.39096
0.916                  0.9990105        17.88786
0.92                    1.000416        17.35195
0.924                   1.001708        16.78277
0.928                   1.002653        16.18585
0.932                   1.003079        15.57167
0.936                   1.002899        14.95393
0.94                    1.002138        14.34716
0.944                    1.00092        13.76424
0.948                  0.9994554         13.2141
0.952                  0.9980021        12.70003
0.956                  0.9968206        12.21891
0.96                   0.9961276        11.76157
0.964                  0.9960552         11.3143
0.968                  0.9966253        10.86131
0.972                  0.9977438         10.3876
0.976                  0.9992165        9.881777
0.98                    1.000783        9.338107
0.984                   1.002162         8.75757
0.988                   1.003105        8.147654
0.992                   1.003435        7.521064
0.996                   1.003083        6.893541
1                       1.002099        6.281204
1.004                   1.000646        5.697758
1.008                  0.9989752        5.152047
1.012                  0.9973813        4.646311
1.016                  0.9961515        4.175551
1.02                   0.9955133        3.728188
1.024                  0.9955915        3.288007
1.028                  0.9963831        2.837079
1.032                  0.9977557        2.359071
1.036                  0.9994703        1.842286
1.04                    1.001223        1.281808
1.044                   1.002699       0.6803649
1.048                   1.003629      0.04783777
1.052                   1.003836      -0.6004483
1.056                   1.003269       -1.246311
1.06                    1.002012        -1.87178
1.064                   1.000276       -2.462193
1.068                  0.9983584       -3.008867
1.072                  0.9965995       -3.510873
1.076                  0.9953174       -3.975518
1.08                   0.9947522       -4.417322
1.084                  0.9950186       -4.855538
1.088                  0.9960824       -5.310661
1.092                  0.9977647       -5.800597
1.096                  0.9997716       -6.337341
1.1                     1.001747       -6.924764
1.104                   1.003334       -7.558004
1.108                   1.004242       -8.224247
1.112                   1.004293       -8.904945
1.116                   1.003458       -9.579003
1.12                    1.001865       -10.22618
1.124                  0.9997793       -10.83065
1.128                  0.9975597       -11.38394
1.132                  0.9956004       -11.88674
1.136                  0.9942586       -12.34924
1.14                    0.993789       -12.78962
1.144                  0.9942939       -13.23093
1.148                  0.9957004       -13.69683
1.152                  0.9977707        -14.2072
1.156                   1.000143       -14.77436
1.16                    1.002396        -15.4009
1.164                   1.004121       -16.07921
1.168                   1.004999       -16.79288
1.172                   1.004851       -17.51941
1.176                   1.003677       -18.23395
1.18                    1.001656       -18.91339
1.184                  0.9991249       -19.54039
1.188                  0.9965188       -20.10666
1.192                  0.9943022       -20.61489
1.196                  0.9928824       -21.07894
1.2                    0.9925345       -21.52166
1.204                  0.9933458       -21.97102
1.208                  0.9951942       -22.45486
1.212                  0.9977668        -22.9956
1.216                   1.000614       -23.60607
1.22                     1.00323       -24.28725
1.224                   1.005138        -25.0281
1.228                   1.005979       -25.80756
1.232                   1.005572         -26.598
1.236                    1.00395       -27.36964
1.24                    1.001361        -28.0955
1.244                  0.9982312       -28.75602
1.248                  0.9950992       -29.34291
1.252                  0.9925238       -29.86135
1.256                  0.9909831       -30.32996
1.26                   0.9907837       -30.77792
1.264                  0.9919957       -31.23991
1.268                  0.9944342       -31.74953
1.272                  0.9976866       -32.33289
1.276                   1.001185       -33.00375
1.28                    1.004304       -33.76108
1.284                   1.006474       -34.58941
1.288                   1.007276       -35.46148
1.292                   1.006518       -36.34262
1.296                   1.004274        -37.1962
1.3                      1.00088        -37.9895
1.304                  0.9968875       -38.69942
1.308                  0.9929793       -39.31713
1.312                  0.9898532       -39.85087
1.316                  0.9880958        -40.3257
1.32                   0.9880672       -40.77987
1.324                  0.9898235       -41.25798
1.328                  0.9930961       -41.80241
1.332                  0.9973318       -42.44514
1.336                    1.00179        -43.2018
1.34                    1.005672       -44.06903
1.344                   1.008257       -45.02533
1.348                    1.00903        -46.0347
1.352                   1.007768       -47.05221
1.356                    1.00459       -48.03077
1.36                   0.9999522       -48.92837
1.364                  0.9945898       -49.71545
1.368                  0.9894066       -50.38111
1.372                  0.9853259        -50.9371
1.376                  0.9831214       -51.41793
1.38                   0.9832611       -51.87603
1.384                  0.9858011       -52.37239
1.388                  0.9903566       -52.96454
1.392                  0.9961604       -53.69526
1.396                   1.002195       -54.58457
1.4                     1.007368       -55.62672
1.404                   1.010698       -56.79169
1.408                   1.011479        -58.0302
1.412                   1.009402       -59.28086
1.416                   1.004623       -60.47872
1.42                   0.9977664       -61.56463
1.424                  0.9898585       -62.49523
1.428                  0.9821886       -63.25255
1.432                  0.9761036       -63.85128
1.436                  0.9727621       -64.34084
1.44                   0.9728921       -64.79964
1.444                  0.9766143       -65.32114
1.448                  0.9833802       -65.99503
1.452                  0.9920486       -66.88898
1.456                   1.001079       -68.03612
1.46                     1.00879       -69.43093
1.464                   1.013633       -71.03174
1.468                   1.014434       -72.76792
1.472                   1.010583       -74.54907
1.476                   1.002159       -76.27527
1.48                   0.9899792       -77.84888
1.484                  0.9755636       -79.18895
1.488                  0.9609866       -80.24893
1.492                  0.9485992       -81.03549
1.496                   0.940622       -81.62268
1.5                    0.9386641       -82.15223
1.504                  0.9432848       -82.81308
1.508                  0.9537469       -83.80349
1.512                  0.9680519          -85.29
1.516                  0.9832306       -87.37974
1.52                   0.9957725       -90.11351
1.524                   1.002059         -93.475
1.528                  0.9987238       -97.40676
1.532                   0.982904       -101.8246
1.536                  0.9524101       -106.6271
1.54                   0.9058212       -111.6972
1.544                  0.8425372       -116.8964
1.548                  0.7628075       -122.0459
1.552                  0.6677602       -126.8836
1.556                  0.5594946        -130.961
1.56                    0.441418       -133.3653
1.564                  0.3195682        -131.833
1.568                  0.2087251       -119.5788
1.572                   0.157456       -83.09227
1.576                  0.2182879       -49.00629
1.58                   0.3316463       -38.39846
1.584                  0.4537809       -37.47708
1.588                  0.5713915       -40.17067
1.592                  0.6787898       -44.42786
1.596                  0.7726817       -49.40423
1.6                    0.8510195       -54.67709
1.604                  0.9127101       -59.99494
1.608                  0.9575377        -65.1831
1.612                  0.9861409       -70.10381
1.616                  0.9999912       -74.63874
1.62                    1.001346       -78.68351
1.624                  0.9931549       -82.15037
1.628                  0.9788984       -84.97838
1.632                  0.9623244       -87.14967
1.636                   0.947077       -88.70738
1.64                   0.9362335       -89.76654
1.644                  0.9318414       -90.50685
1.648                  0.9346016       -91.14211
1.652                  0.9438336        -91.8745
1.656                  0.9577466       -92.85318
1.66                   0.9739152       -94.15305
1.664                  0.9897938       -95.77657
1.668                   1.003145       -97.67013
1.672                   1.012325        -99.7446
1.676                    1.01644       -101.8936
1.68                    1.015378       -104.0084
1.684                   1.009774       -105.9892
1.688                   1.000882       -107.7561
1.692                   0.990391       -109.2586
1.696                  0.9801747       -110.4846
1.7                    0.9720013       -111.4655
1.704                  0.9672377       -112.2731
1.708                  0.9666123       -113.0078
1.712                  0.9701015       -113.7782
1.716                  0.9769674        -114.679
1.72                   0.9859392       -115.7735
1.724                  0.9954781       -117.0851
1.728                   1.004058       -118.5994
1.732                   1.010405        -120.271
1.736                   1.013667       -122.0345
1.74                     1.01351       -123.8154
1.744                   1.010132       -125.5399
1.748                   1.004222       -127.1442
1.752                  0.9968405       -128.5834
1.756                  0.9892616       -129.8382
1.76                   0.9827689       -130.9192
1.764                  0.9784428       -131.8669
1.768                  0.9769732       -132.7449
1.772                  0.9785419       -133.6284
1.776                  0.9828034        -134.589
1.78                   0.9889679        -135.681
1.784                   0.995963       -136.9335
1.788                   1.002631       -138.3467
1.792                   1.007922       -139.8956
1.796                   1.011052       -141.5357
1.8                     1.011606       -143.2113
1.804                   1.009582       -144.8636
1.808                   1.005382       -146.4387
1.812                  0.9997436       -147.8952
1.816                  0.9936228       -149.2102
1.82                   0.9880462        -150.384
1.824                  0.9839399       -151.4406
1.828                  0.9819727       -152.4244
1.832                  0.9824392       -153.3928
1.836                  0.9852136       -154.4043
1.84                   0.9897822       -155.5087
1.844                   0.995347       -156.7371
1.848                   1.000974       -158.0989
1.852                   1.005753       -159.5812
1.856                   1.008941       -161.1529
1.86                    1.010071       -162.7702
1.864                    1.00901       -164.3841
1.868                   1.005973       -165.9468
1.872                   1.001487       -167.4187
1.876                  0.9963035       -168.7744
1.88                   0.9912861       -170.0067
1.884                  0.9872664        -171.129
1.888                  0.9849055       -172.1733
1.892                  0.9845791       -173.1851
1.896                  0.9863134       -174.2149
1.9                    0.9897852       -175.3089
1.904                  0.9943868       -176.5006
1.908                  0.9993391       -177.8056
1.912                   1.003828       -179.2197
1.916                   1.007135        179.2785
1.92                    1.008751        177.7237
1.924                   1.008442        176.1582
1.928                   1.006286        174.6256
1.932                   1.002651        173.1643
1.936                  0.9981436        171.8023
1.94                   0.9935083        170.5521
1.944                  0.9895124        169.4086
1.948                  0.9868167        168.3487
1.952                  0.9858619        167.3356
1.956                  0.9867909        166.3246
1.96                   0.9894265        165.2719
1.964                  0.9933063        164.1422
1.968                  0.9977694         162.915
1.972                   1.002072        161.5872
1.976                   1.005514        160.1726
1.98                    1.007547        158.6991
1.984                   1.007856        157.2035
1.988                   1.006406        155.7261
1.992                   1.003442        154.3051
1.996                  0.9994534        152.9703
2                      0.9950959         151.739
2.004                  0.9910887        150.6123
2.008                  0.9880967        149.5746
2.012                  0.9866152        148.5954
2.016                  0.9868841        147.6348
2.02                   0.9888446        146.6507
2.024                  0.9921524         145.606
2.028                  0.9962411        144.4761
2.032                   1.000423        143.2517
2.036                   1.004007        141.9404
2.04                    1.006409        140.5642
2.044                   1.007244        139.1555
2.048                   1.006379        137.7525
2.052                   1.003958         136.393
2.056                   1.000373        135.1088
2.06                   0.9962093        133.9214
2.064                  0.9921504        132.8373
2.068                  0.9888697        131.8468
2.072                  0.9869143        130.9251
2.076                  0.9866097        130.0359
2.08                   0.9880001        129.1379
2.084                  0.9908415        128.1926
2.088                  0.9946458        127.1712
2.092                  0.9987688        126.0591
2.096                    1.00252         124.858
2.1                     1.005279        123.5851
2.104                    1.00659        122.2693
2.108                   1.006233        120.9469
2.112                   1.004258         119.656
2.116                   1.000975         118.431
2.12                   0.9969124        117.2972
2.124                  0.9927297        116.2662
2.128                  0.9891179         115.334
2.132                  0.9866803        114.4803
2.136                  0.9858275        113.6717
2.14                   0.9867024        112.8674
2.144                  0.9891527        112.0265
2.148                  0.9927586        111.1159
2.152                  0.9969062        110.1155
2.156                   1.000895        109.0215
2.16                    1.004055        107.8464
2.164                   1.005852        106.6161
2.168                   1.005976         105.366
2.172                   1.004382        104.1353
2.176                   1.001304        102.9614
2.18                   0.9972189        101.8743
2.184                  0.9927797        100.8914
2.188                  0.9887101        100.0142
2.192                  0.9856862        99.22681
2.196                  0.9842201         98.4983
2.2                    0.9845644        97.78725
2.204                  0.9866641         97.0494
2.208                  0.9901628        96.24572
2.212                  0.9944652        95.34948
2.216                    0.99884        94.35047
2.22                    1.002542        93.25619
2.224                   1.004935        92.08996
2.228                   1.005589        90.88696
2.232                   1.004349        89.68886
2.236                   1.001362        88.53787
2.24                   0.9970603        87.47042
2.244                  0.9921034        86.51143
2.248                  0.9872777         85.6695
2.252                  0.9833734        84.93423
2.256                  0.9810475        84.27659
2.26                   0.9807053        83.65316
2.264                  0.9824185        83.01353
2.268                  0.9859059        82.30955
2.272                  0.9905773        81.50422
2.276                   0.995634        80.57803
2.28                    1.000202        79.53173
2.284                   1.003474        78.38547
2.288                   1.004834         77.1753
2.292                   1.003959        75.94767
2.296                   1.000869        74.75302
2.3                    0.9959355        73.63879
2.304                  0.9898442        72.64224
2.308                  0.9835011        71.78373
2.312                  0.9778996        71.06149
2.316                  0.9739574         70.4495
2.32                   0.9723502         69.8997
2.324                  0.9733759        69.34932
2.328                  0.9768811        68.73212
2.332                   0.982272        67.99069
2.336                   0.988606        67.08692
2.34                   0.9947434        66.00799
2.344                  0.9995283        64.76758
2.348                   1.001965        63.40291
2.352                   1.001367        61.96932