! TOUCHSTONE file generated by CST MICROWAVE STUDIO
! Date and time: Tue Jun  7 22:11:16 2022
! Project name: AppElm_antenne_patch_FR4.cst
! Parameters = {L=45; W=58.5; e=0.035; h=1.6; lambda=0.190476; ls=120; w0=1.6; w1=0.5064; ws=120; y0=20; y1=23.81}
! Header version: 2018
! Port assignment regex: !\s*Touchstone port\s*([0-9]+)\s*=\s*(CST MWS port|CST DS port)\s*([0-9]+|Zmin|Zmax)\s*\(\"(.*)\"\)(\s*mode\s*([0-9]+))?.*
! Touchstone port assignment:
! Touchstone port 1 = CST MWS port 1 ("")
# GHz S MA R 50
0                      0.9890846              -0
0.004                  0.9897328       -9.927963
0.008                  0.9915885       -19.76879
0.012                   0.994399       -29.43962
0.016                  0.9977855       -38.86538
0.02                      1.0013       -47.98128
0.024                   1.004489       -56.73396
0.028                   1.006955       -65.08158
0.032                   1.008407       -72.99339
0.036                   1.008698       -80.44898
0.04                    1.007839       -87.43784
0.044                   1.005992       -93.95891
0.048                   1.003448       -100.0207
0.052                   1.000584       -105.6412
0.056                  0.9978073       -110.8477
0.06                   0.9955019       -115.6758
0.064                  0.9939689       -120.1676
0.068                  0.9933879       -124.3689
0.072                  0.9937915       -128.3256
0.076                  0.9950665       -132.0806
0.08                   0.9969769       -135.6702
0.084                  0.9992051       -139.1218
0.088                   1.001403       -142.4535
0.092                   1.003245       -145.6743
0.096                   1.004477       -148.7851
0.1                     1.004945       -151.7818
0.104                   1.004621       -154.6573
0.108                   1.003593       -157.4045
0.112                   1.002054       -160.0189
0.116                   1.000267       -162.5003
0.12                    0.998523       -164.8544
0.124                  0.9970949       -167.0923
0.128                  0.9961962       -169.2306
0.132                  0.9959484       -171.2888
0.136                  0.9963644       -173.2874
0.14                   0.9973507       -175.2451
0.144                  0.9987259       -177.1769
0.148                   1.000254        -179.092
0.152                   1.001683        179.0066
0.156                   1.002787        177.1216
0.16                    1.003402        175.2603
0.164                   1.003445         173.433
0.168                   1.002931        171.6505
0.172                    1.00196        169.9224
0.176                   1.000705        168.2553
0.18                   0.9993798        166.6511
0.184                  0.9982044        165.1069
0.188                   0.997368         163.615
0.192                  0.9969989        162.1639
0.196                  0.9971452        160.7404
0.2                    0.9977676        159.3315
0.204                  0.9987492        157.9261
0.208                  0.9999165         156.517
0.212                    1.00107        155.1016
0.216                   1.002018         153.682
0.22                    1.002608        152.2645
0.224                    1.00275         150.858
0.228                    1.00243        149.4728
0.232                   1.001711        148.1182
0.236                   1.000722        146.8015
0.24                   0.9996329        145.5263
0.244                  0.9986289        144.2921
0.248                  0.9978773        143.0941
0.252                  0.9975003         141.924
0.256                  0.9975543        140.7715
0.26                   0.9980222        139.6258
0.264                  0.9988167        138.4777
0.268                  0.9997967        137.3208
0.272                   1.000792        136.1525
0.276                   1.001635        134.9743
0.28                    1.002183        133.7916
0.284                   1.002349        132.6121
0.288                   1.002109        131.4453
0.292                    1.00151        130.2998
0.296                   1.000658        129.1828
0.3                    0.9997005        128.0983
0.304                  0.9988025        127.0464
0.308                  0.9981167        126.0235
0.312                  0.9977582        125.0228
0.316                  0.9977848        124.0353
0.32                   0.9981873        123.0515
0.324                  0.9988921         122.063
0.328                  0.9997746        121.0639
0.332                   1.000681        120.0515
0.336                   1.001455        119.0274
0.34                    1.001966        117.9961
0.344                   1.002128        116.9651
0.348                   1.001916         115.943
0.352                    1.00137        114.9381
0.356                   1.000587        113.9572
0.36                   0.9997032        113.0042
0.364                  0.9988723        112.0796
0.368                  0.9982381        111.1802
0.372                  0.9979096        110.2996
0.376                  0.9979424        109.4295
0.38                   0.9983288        108.5611
0.384                  0.9989994        107.6864
0.388                  0.9998362        106.7998
0.392                   1.000693        105.8991
0.396                    1.00142        104.9855
0.4                     1.001893        104.0638
0.404                   1.002031        103.1409
0.408                   1.001811        102.2254
0.412                   1.001272        101.3252
0.416                    1.00051        100.4469
0.42                   0.9996564         99.5943
0.424                  0.9988615        98.76763
0.428                  0.9982636        97.96375
0.432                  0.9979673        97.17642
0.436                  0.9980237        96.39752
0.44                   0.9984222         95.6184
0.444                  0.9990919        94.83142
0.448                  0.9999151        94.03133
0.452                   1.000747        93.21615
0.456                   1.001441        92.38742
0.46                    1.001877        91.54991
0.464                   1.001979        90.71085
0.468                   1.001728        89.87852
0.472                   1.001169        89.06092
0.476                     1.0004        88.26436
0.48                   0.9995545         87.4923
0.484                  0.9987819        86.74479
0.488                  0.9982185        86.01832
0.492                  0.9979638         85.3065
0.496                   0.998063        84.60104
0.5                    0.9984991        83.89335
0.504                   0.999195          83.176
0.508                   1.000028        82.44405
0.512                    1.00085         81.6959
0.516                   1.001518        80.93354
0.52                    1.001911        80.16218
0.524                   1.001961        79.38932
0.528                   1.001657        78.62344
0.532                   1.001051        77.87253
0.536                   1.000248        77.14268
0.54                   0.9993898        76.43701
0.544                  0.9986266        75.75508
0.548                  0.9980942        75.09289
0.552                  0.9978873        74.44351
0.556                  0.9980436        73.79841
0.56                   0.9985362        73.14885
0.564                  0.9992782        72.48752
0.568                   1.000138        71.80983
0.572                   1.000964        71.11471
0.576                   1.001607        70.40478
0.58                    1.001955        69.68586
0.584                   1.001942        68.96593
0.588                    1.00157        68.25378
0.592                   1.000903        67.55742
0.596                   1.000056        66.88275
0.6                    0.9991788         66.2324
0.604                  0.9984277        65.60523
0.608                  0.9979369        64.99657
0.612                  0.9977959         64.3988
0.616                  0.9980318         63.8029
0.62                   0.9986046        63.19991
0.624                  0.9994134        62.58271
0.628                   1.000315        61.94709
0.632                    1.00115        61.29273
0.636                   1.001768        60.62302
0.64                    1.002057        59.94464
0.644                   1.001965        59.26621
0.648                   1.001503        58.59694
0.652                   1.000752        57.94493
0.656                  0.9998424        57.31576
0.66                   0.9989346        56.71148
0.664                  0.9981909        56.13012
0.668                  0.9977452        55.56604
0.672                  0.9976797         55.0108
0.676                  0.9980086        54.45473
0.68                   0.9986755        53.88866
0.684                  0.9995624        53.30559
0.688                   1.000512        52.70192
0.692                   1.001354        52.07815
0.696                   1.001938        51.43872
0.7                     1.002155        50.79124
0.704                   1.001965        50.14518
0.708                   1.001397        49.51018
0.712                   1.000548        48.89441
0.716                  0.9995683        48.30305
0.72                   0.9986308        47.73735
0.724                  0.9979045        47.19429
0.728                   0.997522        46.66707
0.732                  0.9975552        46.14624
0.736                   0.998002        45.62141
0.74                   0.9987853        45.08317
0.744                  0.9997671        44.52477
0.748                   1.000772        43.94335
0.752                    1.00162        43.34049
0.756                   1.002157        42.72186
0.76                    1.002284        42.09625
0.764                   1.001972        41.47407
0.768                   1.001273        40.86547
0.772                   1.000306         40.2786
0.776                  0.9992414        39.71816
0.78                   0.9982683        39.18439
0.784                  0.9975623          38.673
0.788                  0.9972533         38.1758
0.792                  0.9974003        37.68217
0.796                  0.9979811        37.18094
0.8                    0.9988941        36.66247
0.804                  0.9999774        36.12039
0.808                   1.001037         35.5528
0.812                    1.00188        34.96254
0.816                   1.002353        34.35676
0.82                    1.002366        33.74559
0.824                    1.00191        33.14046
0.828                    1.00106        32.55203
0.832                  0.9999629        31.98836
0.836                  0.9988122        31.45341
0.84                    0.997814        30.94617
0.844                  0.9971502         30.4608
0.848                  0.9969448        29.98749
0.852                  0.9972404        29.51426
0.856                  0.9979892        29.02911
0.86                   0.9990604        28.52225
0.864                   1.000264        27.98789
0.868                   1.001384         27.4253
0.872                   1.002217        26.83893
0.876                    1.00261        26.23763
0.88                    1.002485         25.6331
0.884                   1.001857        25.03788
0.888                   1.000831        24.46318
0.892                  0.9995842        23.91682
0.896                  0.9983383        23.40183
0.9                    0.9973171        22.91567
0.904                   0.996708        22.45064
0.908                  0.9966263        21.99507
0.912                  0.9970936        21.53547
0.916                  0.9980313        21.05899
0.92                   0.9992748         20.5558
0.924                   1.000602        20.02091
0.928                   1.001773        19.45505
0.932                   1.002575        18.86459
0.936                   1.002855        18.26035
0.94                    1.002557        17.65579
0.944                   1.001722        17.06467
0.948                   1.000491        16.49865
0.952                  0.9990799        15.96516
0.956                  0.9977384        15.46595
0.96                   0.9967104        14.99662
0.964                   0.996187        14.54719
0.968                  0.9962712        14.10382
0.972                  0.9969566        13.65133
0.976                  0.9981273        13.17598
0.98                   0.9995776        12.66804
0.984                   1.001049        12.12361
0.988                   1.002275        11.54526
0.992                   1.003031        10.94164
0.996                   1.003173        10.32593
1                       1.002664        9.713588
1.004                   1.001583        9.119723
1.008                   1.000114        8.556417
1.012                  0.9985127        8.030512
1.016                   0.997066        7.542198
1.02                   0.9960377        7.084747
1.024                  0.9956211         6.64552
1.028                  0.9959014        6.208164
1.032                  0.9968383        5.755595
1.036                  0.9982704        5.273201
1.04                   0.9999443        4.751561
1.044                   1.001559         4.18818
1.048                   1.002821        3.587932
1.052                   1.003493        2.962195
1.056                   1.003444        2.326897
1.06                    1.002665        1.699806
1.064                   1.001281        1.097489
1.068                  0.9995251       0.5323893
1.072                  0.9977061      0.01046967
1.076                  0.9961498      -0.4701152
1.08                   0.9951431      -0.9189976
1.084                   0.994879       -1.352088
1.088                  0.9954187       -1.788773
1.092                   0.996678       -2.248328
1.096                  0.9984397       -2.746297
1.1                     1.000392       -3.291587
1.104                   1.002184       -3.884865
1.108                   1.003488       -4.518379
1.112                   1.004059        -5.17741
1.116                   1.003777       -5.842779
1.12                    1.002673       -6.493943
1.124                   1.000925       -7.112621
1.128                  0.9988303       -7.686034
1.132                  0.9967571        -8.20938
1.136                  0.9950801       -8.687053
1.14                   0.9941112       -9.132281
1.144                   0.994041       -9.564976
1.148                  0.9948995       -10.00817
1.152                  0.9965472       -10.48371
1.156                  0.9986975        -11.0081
1.16                    1.000968       -11.58946
1.164                   1.002947       -12.22602
1.168                   1.004269       -12.90651
1.172                   1.004678       -13.61204
1.176                   1.004075       -14.31934
1.18                    1.002539       -15.00456
1.184                   1.000318       -15.64735
1.188                  0.9977884       -16.23458
1.192                  0.9953962       -16.76298
1.196                  0.9935759        -17.2403
1.2                    0.9926711       -17.68445
1.204                  0.9928678       -18.12051
1.208                  0.9941545       -18.57623
1.212                  0.9963198       -19.07671
1.216                  0.9989876       -19.63968
1.22                    1.001684       -20.27219
1.224                   1.003919       -20.96935
1.228                   1.005279       -21.71532
1.232                   1.005493       -22.48592
1.236                   1.004488       -23.25264
1.24                    1.002404       -23.98728
1.244                  0.9995767       -24.66677
1.248                  0.9964882       -25.27738
1.252                  0.9936843       -25.81778
1.256                  0.9916792       -26.30007
1.26                   0.9908587       -26.74832
1.264                  0.9914036       -27.19448
1.268                  0.9932476       -27.67256
1.272                  0.9960842         -28.212
1.276                  0.9994179       -28.83211
1.28                    1.002652        -29.5385
1.284                   1.005193       -30.32216
1.288                   1.006558       -31.16112
1.292                   1.006457       -32.02407
1.296                   1.004848       -32.87535
1.3                     1.001954       -33.68067
1.304                  0.9982332       -34.41288
1.308                  0.9943124       -35.05713
1.312                  0.9908821       -35.61451
1.316                  0.9885745       -36.10311
1.32                   0.9878425       -36.55577
1.324                  0.9888655       -37.01456
1.328                   0.991505       -37.52282
1.332                  0.9953206        -38.1167
1.336                  0.9996448       -38.81825
1.34                    1.003702       -39.63145
1.344                   1.006742       -40.54175
1.348                   1.008173       -41.51868
1.352                   1.007662       -42.52073
1.356                   1.005202       -43.50171
1.36                    1.001126       -44.41787
1.364                  0.9960658       -45.23518
1.368                  0.9908644       -45.93613
1.372                  0.9864373       -46.52447
1.376                  0.9836096       -47.02681
1.38                   0.9829533       -47.48951
1.384                  0.9846631       -47.97075
1.388                  0.9884999       -48.52935
1.392                  0.9938206       -49.21298
1.396                  0.9996875       -50.04903
1.4                     1.005032       -51.03991
1.404                   1.008837       -52.16317
1.408                   1.010313       -53.37552
1.412                   1.009029        -54.6193
1.416                   1.005002        -55.8307
1.42                   0.9987171       -56.94889
1.424                  0.9910842       -57.92588
1.428                   0.983317       -58.73637
1.432                  0.9767474       -59.38573
1.436                  0.9725888       -59.91377
1.44                   0.9716902       -60.39119
1.444                  0.9743373       -60.90792
1.448                  0.9801591       -61.55529
1.452                  0.9881676        -62.4072
1.456                   0.996923       -63.50605
1.46                    1.004779       -64.85632
1.464                   1.010155       -66.42554
1.468                    1.01179       -68.15049
1.472                   1.008939       -69.94615
1.476                   1.001523        -71.7156
1.48                   0.9901849       -73.36173
1.484                  0.9762799       -74.80109
1.488                   0.961746       -75.98075
1.492                  0.9488553       -76.89708
1.496                   0.939832       -77.61098
1.5                    0.9363853       -78.25136
1.504                  0.9392593       -78.99904
1.508                  0.9479468       -80.05223
1.512                  0.9606694        -81.5858
1.516                  0.9746236       -83.72083
1.52                   0.9863868       -86.51416
1.524                  0.9923541       -89.96521
1.528                  0.9891097       -94.03137
1.532                  0.9736991        -98.6439
1.536                  0.9438077       -103.7194
1.54                   0.8978641       -109.1659
1.544                  0.8350896       -114.8826
1.548                   0.755509       -120.7523
1.552                  0.6599362       -126.6206
1.556                  0.5499528       -132.2438
1.56                   0.4279275        -137.135
1.564                  0.2972884       -139.9913
1.568                  0.1646513       -135.3652
1.572                 0.07198569       -81.88676
1.576                  0.1572935       -23.06069
1.58                   0.2897279       -17.52868
1.584                  0.4209078        -20.2232
1.588                    0.54376       -25.10504
1.592                  0.6547303        -30.7788
1.596                   0.751355       -36.73351
1.6                    0.8319574       -42.71639
1.604                   0.895628       -48.56895
1.608                  0.9422486       -54.17111
1.612                  0.9725153       -59.41907
1.616                   0.987936       -64.21698
1.62                   0.9907934       -68.47617
1.624                  0.9840543       -72.12076
1.628                   0.971205       -75.09963
1.632                  0.9559871       -77.40354
1.636                  0.9420198       -79.08325
1.64                    0.932338       -80.25985
1.644                   0.928935       -81.11648
1.648                  0.9324604       -81.86712
1.652                   0.942199       -82.71141
1.656                  0.9563533       -83.79452
1.66                   0.9725192       -85.18754
1.664                  0.9881961       -86.89015
1.668                   1.001206        -88.8473
1.672                   1.009975        -90.9695
1.676                   1.013678       -93.15095
1.68                    1.012275       -95.28413
1.684                   1.006462       -97.27148
1.688                  0.9975409       -99.03614
1.692                  0.9872269        -100.532
1.696                  0.9773918       -101.7522
1.7                    0.9697667       -102.7334
1.704                  0.9656486       -103.5519
1.708                   0.965675       -104.3105
1.712                  0.9697249       -105.1172
1.716                  0.9769799       -106.0635
1.72                   0.9861188       -107.2075
1.724                  0.9955911       -108.5673
1.728                   1.003896       -110.1232
1.732                   1.009814       -111.8266
1.736                   1.012571         -113.61
1.74                    1.011918       -115.3982
1.744                   1.008141       -117.1184
1.748                   1.002001       -118.7097
1.752                  0.9946083       -120.1311
1.756                  0.9872559       -121.3688
1.76                   0.9812046       -122.4394
1.764                  0.9774726       -123.3884
1.768                  0.9766567       -124.2828
1.772                  0.9788319       -125.1984
1.776                  0.9835525       -126.2042
1.78                   0.9899552       -127.3499
1.784                  0.9969323       -128.6584
1.788                   1.003334       -130.1242
1.792                   1.008158       -131.7173
1.796                   1.010696       -133.3899
1.8                     1.010627       -135.0847
1.804                   1.008049       -136.7433
1.808                   1.003455       -138.3142
1.812                  0.9976486       -139.7599
1.816                  0.9916219       -141.0631
1.82                   0.9863935       -142.2302
1.824                  0.9828383       -143.2913
1.828                  0.9815359       -144.2953
1.832                  0.9826693       -145.3011
1.836                  0.9860009        -146.366
1.84                   0.9909237       -147.5354
1.844                  0.9965848       -148.8348
1.848                   1.002038       -150.2668
1.852                   1.006407        -151.813
1.856                   1.009018       -153.4376
1.86                    1.009497       -155.0947
1.864                   1.007819       -156.7345
1.868                     1.0043        -158.311
1.872                  0.9995474       -159.7884
1.876                  0.9943653       -161.1464
1.88                   0.9896234       -162.3845
1.884                  0.9861152       -163.5223
1.888                  0.9844204       -164.5971
1.892                  0.9848042       -165.6572
1.896                   0.987173       -166.7527
1.9                    0.9910967       -167.9265
1.904                  0.9958942       -169.2063
1.908                   1.000756        -170.601
1.912                   1.004886          -172.1
1.916                   1.007627       -173.6766
1.92                     1.00856       -175.2925
1.924                   1.007562        -176.904
1.928                    1.00482       -178.4686
1.932                   1.000801        -179.951
1.936                  0.9961769        178.6717
1.94                    0.991717        177.4056
1.944                  0.9881661        176.2385
1.948                  0.9861141        175.1415
1.952                  0.9858952        174.0738
1.956                  0.9875275        172.9899
1.96                   0.9907144        171.8483
1.964                  0.9949012        170.6191
1.968                  0.9993771        169.2885
1.972                   1.003399        167.8603
1.976                   1.006314        166.3547
1.98                     1.00766        164.8039
1.984                   1.007234        163.2472
1.988                    1.00512        161.7249
1.992                   1.001673        160.2723
1.996                  0.9974659        158.9146
2                      0.9931968        157.6624
2.004                  0.9895786        156.5098
2.008                  0.9872168        155.4341
2.012                  0.9865044        154.3998
2.016                  0.9875517        153.3651
2.02                   0.9901678         152.289
2.024                  0.9938962        151.1395
2.028                  0.9981008        149.8984
2.032                   1.002075        148.5643
2.036                   1.005163        147.1519
2.04                    1.006861        145.6887
2.044                   1.006897        144.2107
2.048                    1.00527        142.7567
2.052                   1.002246        141.3625
2.056                  0.9983219        140.0557
2.06                   0.9941457        138.8508
2.064                  0.9904124        137.7466
2.068                   0.987748        136.7257
2.072                  0.9866013        135.7567
2.076                  0.9871618        134.7998
2.08                   0.9893255        133.8143
2.084                  0.9927155        132.7657
2.088                  0.9967492         131.632
2.092                   1.000743        130.4071
2.096                   1.004028        129.1011
2.1                     1.006059        127.7377
2.104                   1.006497        126.3507
2.108                   1.005267        124.9781
2.112                   1.002561        123.6566
2.116                  0.9988168        122.4165
2.12                   0.9946473         121.276
2.124                  0.9907438        120.2381
2.128                  0.9877623        119.2896
2.132                  0.9862081        118.4023
2.136                  0.9863456        117.5377
2.14                   0.9881489        116.6543
2.144                  0.9913044        115.7149
2.148                  0.9952684        114.6934
2.152                  0.9993638        113.5792
2.156                   1.002896        112.3783
2.16                    1.005266        111.1118
2.164                   1.006069        109.8117
2.168                   1.005153        108.5164
2.172                   1.002648        107.2645
2.176                  0.9989423        106.0893
2.18                   0.9946316        105.0133
2.184                   0.990422         104.044
2.188                  0.9870168        103.1718
2.192                  0.9849946         102.371
2.196                  0.9847042        101.6034
2.2                    0.9861987        100.8253
2.204                  0.9892224        99.99532
2.208                  0.9932559        99.08244
2.212                   0.997607        98.07084
2.216                   1.001531        96.96236
2.22                    1.004352        95.77541
2.224                   1.005574        94.54158
2.228                   1.004957        93.30069
2.232                   1.002557        92.09478
2.236                  0.9987225        90.96198
2.24                   0.9940455        89.93054
2.244                  0.9892743        89.01367
2.248                  0.9851945         88.2063
2.252                  0.9824962        87.48471
2.256                  0.9816484        86.80961
2.26                   0.9828091        86.13289
2.264                  0.9857883        85.40636
2.268                   0.990079        84.59075
2.272                  0.9949425        83.66267
2.276                  0.9995356        82.61821
2.28                    1.003049        81.47287
2.284                   1.004837        80.25861
2.288                   1.004521        79.01881
2.292                   1.002049          77.802
2.296                  0.9977161        76.65509
2.3                     0.992128        75.61629
2.304                  0.9861244        74.70856
2.308                  0.9806528        73.93424
2.312                  0.9766144        73.27253
2.316                  0.9747035        72.68104
2.32                   0.9752709        72.10204
2.324                  0.9782444        71.47268
2.328                  0.9831258        70.73673
2.332                  0.9890675        69.85492
2.336                  0.9950119        68.81131
2.34                   0.9998604         67.6153
2.344                   1.002645        66.29925
2.348                   1.002674        64.91357
2.352                  0.9996466        63.52003