! TOUCHSTONE file generated by CST MICROWAVE STUDIO
! Date and time: Tue Jun  7 22:11:18 2022
! Project name: AppElm_antenne_patch_FR4.cst
! Parameters = {L=45; W=58.5; e=0.035; h=1.6; lambda=0.190476; ls=120; w0=1.6; w1=0.5597; ws=120; y0=20; y1=23.81}
! Header version: 2018
! Port assignment regex: !\s*Touchstone port\s*([0-9]+)\s*=\s*(CST MWS port|CST DS port)\s*([0-9]+|Zmin|Zmax)\s*\(\"(.*)\"\)(\s*mode\s*([0-9]+))?.*
! Touchstone port assignment:
! Touchstone port 1 = CST MWS port 1 ("")
# GHz S MA R 50
0                      0.9894721              -0
0.004                  0.9901043       -9.933169
0.008                  0.9919134       -19.77922
0.012                  0.9946498       -29.45526
0.016                  0.9979408       -38.88622
0.02                    1.001346       -48.00722
0.024                   1.004419       -56.76481
0.028                   1.006774       -65.11712
0.032                   1.008129       -73.03338
0.036                   1.008347       -80.49332
0.04                    1.007445       -87.48663
0.044                   1.005593       -94.01262
0.048                   1.003081       -100.0803
0.052                   1.000286       -105.7082
0.056                  0.9976093       -110.9242
0.06                   0.9954221       -115.7642
0.064                   0.994013       -120.2707
0.068                  0.9935454       -124.4893
0.072                  0.9940374       -128.4655
0.076                  0.9953639       -132.2416
0.08                   0.9972824       -135.8527
0.084                  0.9994736       -139.3255
0.088                   1.001595       -142.6771
0.092                   1.003333       -145.9155
0.096                   1.004446       -149.0414
0.1                     1.004801       -152.0505
0.104                   1.004383       -154.9359
0.108                   1.003297       -157.6912
0.112                   1.001745       -160.3126
0.116                  0.9999917        -162.801
0.12                   0.9983251       -165.1631
0.124                   0.997007        -167.411
0.128                  0.9962342       -169.5617
0.132                  0.9961088       -171.6351
0.136                   0.996625       -173.6513
0.14                   0.9976732       -175.6285
0.144                  0.9990619       -177.5803
0.148                   1.000553        -179.515
0.152                   1.001901        178.5656
0.156                   1.002893        176.6649
0.16                    1.003381        174.7909
0.164                   1.003305        172.9539
0.168                   1.002695        171.1643
0.172                   1.001669        169.4311
0.176                   1.000409        167.7597
0.18                   0.9991296         166.151
0.184                  0.9980432        164.6007
0.188                  0.9973244        163.1004
0.192                  0.9970824        161.6382
0.196                   0.997344        160.2009
0.2                    0.9980502        158.7758
0.204                  0.9990701        157.3529
0.208                   1.000224        155.9261
0.212                   1.001313        154.4941
0.216                   1.002158        153.0601
0.22                    1.002621         151.631
0.224                   1.002633         150.216
0.228                   1.002203        148.8252
0.232                   1.001411        147.4674
0.236                   1.000398        146.1488
0.24                   0.9993371        144.8718
0.244                  0.9984101        143.6346
0.248                  0.9977705        142.4314
0.252                  0.9975217        141.2534
0.256                  0.9976981        140.0901
0.26                   0.9982615        138.9311
0.264                  0.9991081         137.768
0.268                   1.000088        136.5956
0.272                   1.001032        135.4125
0.276                   1.001779        134.2216
0.28                    1.002204        133.0288
0.284                   1.002241        131.8425
0.288                   1.001888        130.6718
0.292                    1.00121         129.525
0.296                   1.000329        128.4082
0.3                    0.9993968         127.324
0.304                  0.9985747        126.2714
0.308                  0.9980034        125.2458
0.312                  0.9977784        124.2394
0.316                  0.9979349        123.2432
0.32                   0.9984417        122.2479
0.324                  0.9992078        121.2461
0.328                   1.000098         120.233
0.332                   1.000957        119.2073
0.336                   1.001638        118.1716
0.34                    1.002025        117.1316
0.344                   1.002055        116.0951
0.348                   1.001725        115.0706
0.352                   1.001096        114.0659
0.356                   1.000278        113.0867
0.36                   0.9994154        112.1358
0.364                  0.9986573        111.2122
0.368                  0.9981357        110.3117
0.372                    0.99794        109.4271
0.376                  0.9981025        108.5498
0.38                   0.9985928        107.6715
0.384                  0.9993233        106.7849
0.388                   1.000165        105.8857
0.392                   1.000971         104.973
0.396                   1.001601        104.0494
0.4                     1.001946        103.1204
0.404                   1.001947        102.1936
0.408                   1.001606        101.2773
0.412                   1.000981         100.379
0.416                   1.000184        99.50408
0.42                   0.9993532        98.65507
0.424                   0.998634        97.83091
0.428                   0.998152        97.02725
0.432                  0.9979914        96.23713
0.436                  0.9981794        95.45218
0.44                   0.9986821        94.66415
0.444                    0.99941        93.86634
0.448                   1.000235        93.05475
0.452                   1.001011        92.22874
0.456                   1.001603        91.39118
0.46                    1.001906        90.54777
0.464                   1.001868        89.70616
0.468                   1.001496        88.87451
0.472                   1.000853        88.06019
0.476                   1.000053        87.26837
0.48                   0.9992361        86.50117
0.484                  0.9985461        85.75724
0.488                  0.9981049        85.03189
0.492                  0.9979909        84.31801
0.496                  0.9982245        83.60715
0.5                    0.9987649        82.89118
0.504                  0.9995167        82.16365
0.508                   1.000347        81.42092
0.512                    1.00111        80.66285
0.516                    1.00167        79.89268
0.52                     1.00193        79.11655
0.524                   1.001841        78.34236
0.528                   1.001419        77.57835
0.532                   1.000737        76.83178
0.536                  0.9999139        76.10758
0.54                   0.9990957         75.4074
0.544                  0.9984266        74.72944
0.548                  0.9980259        74.06849
0.552                  0.9979658          73.417
0.556                  0.9982582        72.76633
0.56                   0.9988518        72.10833
0.564                  0.9996422        71.43674
0.568                   1.000489        70.74842
0.572                   1.001243        70.04374
0.576                   1.001768        69.32659
0.58                    1.001972        68.60369
0.584                   1.001815        67.88332
0.588                   1.001323        67.17399
0.592                   1.000581        66.48286
0.596                  0.9997185        65.81451
0.6                    0.9988874        65.17015
0.604                  0.9982354        64.54721
0.608                  0.9978795        63.93983
0.612                  0.9978844        63.33985
0.616                  0.9982509        62.73828
0.62                   0.9989151        62.12685
0.624                  0.9997594        61.49958
0.628                   1.000634        60.85382
0.632                   1.001383        60.19067
0.636                   1.001872        59.51483
0.64                    1.002011         58.8337
0.644                   1.001774        58.15617
0.648                   1.001199        57.49099
0.652                   1.000386        56.84528
0.656                  0.9994761        56.22325
0.66                    0.998632        55.62538
0.664                  0.9980044        55.04827
0.668                  0.9977073        54.48519
0.672                  0.9977963        53.92723
0.676                  0.9982586        53.36489
0.68                   0.9990139        52.78984
0.684                   0.999929        52.19638
0.688                   1.000841        51.58248
0.692                   1.001588        50.95016
0.696                   1.002035        50.30509
0.7                     1.002099        49.65556
0.704                   1.001766        49.01112
0.708                   1.001091        48.38086
0.712                   1.000192        47.77183
0.716                  0.9992265        47.18771
0.72                   0.9983669        46.62816
0.724                  0.9977683        46.08876
0.728                  0.9975408        45.56167
0.732                  0.9977287        45.03712
0.736                  0.9983019        44.50506
0.74                   0.9991603        43.95708
0.744                   1.000153        43.38786
0.748                   1.001101         42.7962
0.752                   1.001836        42.18519
0.756                   1.002223        41.56164
0.76                    1.002188        40.93493
0.764                   1.001734        40.31538
0.768                   1.000935        39.71239
0.772                  0.9999307        39.13289
0.776                  0.9988969        38.57994
0.78                   0.9980184        38.05213
0.784                  0.9974543        37.54378
0.788                   0.997309        37.04581
0.792                  0.9976123         36.5474
0.796                  0.9983135        36.03792
0.8                    0.9992895        35.50889
0.804                   1.000367        34.95554
0.808                   1.001352        34.37765
0.812                   1.002066        33.77959
0.816                   1.002377        33.16957
0.82                    1.002225        32.55815
0.824                   1.001628        31.95651
0.828                   1.000689        31.37441
0.832                  0.9995686         30.8185
0.836                  0.9984659          30.291
0.84                   0.9975785        29.78926
0.844                  0.9970687        29.30607
0.848                  0.9970328        28.83087
0.852                  0.9974822        28.35168
0.856                  0.9983415        27.85723
0.86                   0.9994597        27.33908
0.864                   1.000638        26.79316
0.868                   1.001664        26.22048
0.872                   1.002353        25.62694
0.876                   1.002575        25.02236
0.88                    1.002284         24.4187
0.884                   1.001525        23.82804
0.888                   1.000426        23.26048
0.892                  0.9991799        22.72226
0.896                   0.998008        22.21458
0.9                    0.9971222        21.73323
0.904                  0.9966871         21.2692
0.908                  0.9967872        20.81023
0.912                  0.9974118        20.34305
0.916                  0.9984545        19.85574
0.92                   0.9997322        19.34003
0.924                   1.001017        18.79276
0.928                   1.002078        18.21645
0.932                    1.00272        17.61889
0.936                   1.002822        17.01171
0.94                    1.002356        16.40849
0.944                   1.001396         15.8223
0.948                   1.000106        15.26353
0.952                  0.9987103        14.73785
0.956                  0.9974587        14.24516
0.96                   0.9965785        13.77936
0.964                  0.9962342         13.3293
0.968                  0.9964957        12.88076
0.972                  0.9973237        12.41898
0.976                  0.9985758        11.93143
0.98                     1.00003        11.41012
0.984                   1.001427        10.85309
0.988                   1.002512         10.2647
0.992                   1.003085        9.654929
0.996                   1.003032        9.037607
1                       1.002352        8.428075
1.004                   1.001153        7.840546
1.008                  0.9996404        7.285583
1.012                  0.9980785         6.76812
1.016                  0.9967472        6.286373
1.02                   0.9958907        5.831931
1.024                  0.9956718        5.391096
1.028                  0.9961404        4.947293
1.032                  0.9972221        4.484121
1.036                  0.9987298        3.988406
1.04                    1.000397        3.452646
1.044                   1.001925        2.876377
1.048                   1.003035         2.26625
1.052                    1.00352        1.634868
1.056                    1.00328       0.9986367
1.06                    1.002344       0.3749812
1.064                   1.000863      -0.2206444
1.068                  0.9990916       -0.777518
1.072                  0.9973422       -1.291724
1.076                  0.9959303       -1.767133
1.08                   0.9951178       -2.214998
1.084                  0.9950635       -2.652114
1.088                  0.9957909       -3.097825
1.092                  0.9971819       -3.570427
1.096                  0.9989954       -4.083746
1.1                      1.00091       -4.644574
1.104                   1.002581        -5.25145
1.108                   1.003702        -5.89488
1.112                    1.00406       -6.559021
1.116                   1.003572       -7.224418
1.12                    1.002305       -7.871127
1.124                   1.000467       -8.482238
1.128                  0.9983702       -9.046899
1.132                  0.9963858       -9.562497
1.136                  0.9948724       -10.03554
1.14                   0.9941133       -10.48084
1.144                  0.9942609       -10.91903
1.148                  0.9953054       -11.37286
1.152                  0.9970734       -11.86292
1.156                  0.9992561       -12.40375
1.16                    1.001465        -13.0012
1.164                   1.003299        -13.6513
1.168                   1.004419        -14.3411
1.172                   1.004604       -15.05075
1.176                   1.003794       -15.75691
1.18                    1.002106       -16.43656
1.184                  0.9998148       -17.07097
1.188                  0.9973118       -17.64914
1.192                  0.9950391       -18.17016
1.196                  0.9934111       -18.64394
1.2                    0.9927376       -19.08987
1.204                  0.9931626       -19.53355
1.208                  0.9946326       -20.00214
1.212                  0.9969022       -20.51915
1.216                  0.9995762       -21.10003
1.22                    1.002178       -21.74936
1.224                   1.004236       -22.46002
1.228                   1.005365       -23.21452
1.232                   1.005335       -23.98788
1.236                   1.004115       -24.75176
1.24                    1.001884       -25.47903
1.244                   0.999006        -26.1485
1.248                  0.9959732       -26.74886
1.252                  0.9933246       -27.28134
1.256                  0.9915492        -27.7603
1.26                   0.9909939       -28.21124
1.264                  0.9917926       -28.66649
1.268                  0.9938349       -29.15915
1.272                  0.9967797       -29.71677
1.276                   1.000114       -30.35611
1.28                    1.003244       -31.08011
1.284                   1.005597       -31.87748
1.288                   1.006724       -32.72469
1.292                    1.00638       -33.58979
1.296                   1.004567       -34.43751
1.3                     1.001547       -35.23488
1.304                  0.9978058       -35.95691
1.308                  0.9939768       -36.59141
1.312                  0.9907384       -37.14221
1.316                  0.9886914       -37.62972
1.32                   0.9882426       -38.08812
1.324                    0.98952       -38.55952
1.328                  0.9923371       -39.08593
1.332                  0.9962194        -39.7011
1.336                   1.000486        -40.4241
1.34                    1.004367       -41.25599
1.344                    1.00714       -42.17982
1.348                   1.008256       -43.16356
1.352                   1.007432       -44.16518
1.356                    1.00471       -45.13903
1.36                    1.000466       -46.04291
1.364                  0.9953605       -46.84521
1.368                  0.9902435       -47.53137
1.372                  0.9860165       -48.10825
1.376                  0.9834683       -48.60504
1.38                   0.9831195       -49.06958
1.384                  0.9851069       -49.56001
1.388                  0.9891402       -50.13353
1.392                  0.9945402       -50.83503
1.396                   1.000357       -51.68856
1.4                     1.005533       -52.69339
1.404                   1.009085       -53.82453
1.408                   1.010271       -55.03718
1.412                   1.008717       -56.27331
1.416                   1.004495       -57.46984
1.42                   0.9981376       -58.56784
1.424                  0.9905834       -59.52219
1.428                  0.9830533       -60.31123
1.432                   0.976859       -60.94419
1.436                  0.9731665       -61.46414
1.44                   0.9727574       -61.94362
1.444                  0.9758433       -62.47223
1.448                  0.9819866       -63.13885
1.452                  0.9901544       -64.01345
1.456                  0.9988909       -65.13395
1.46                    1.006565       -66.50071
1.464                   1.011635       -68.07817
1.468                   1.012896       -69.80126
1.472                   1.009672       -71.58419
1.476                   1.001947       -73.33053
1.48                   0.9904256       -74.94476
1.484                  0.9765068       -76.34614
1.488                  0.9621483        -77.4857
1.492                  0.9496104       -78.36446
1.496                  0.9410709       -79.04778
1.5                    0.9381608        -79.6674
1.504                  0.9415297       -80.40399
1.508                  0.9505812       -81.45212
1.512                  0.9634736       -82.98054
1.516                  0.9773772       -85.10333
1.52                   0.9888798       -87.87087
1.524                  0.9944148        -91.2771
1.528                  0.9906226       -95.27461
1.532                  0.9746137       -99.78954
1.536                   0.944142       -104.7319
1.54                   0.8977055            -110
1.544                  0.8345973       -115.4774
1.548                   0.754922       -121.0207
1.552                  0.6595976       -126.4284
1.556                  0.5503735       -131.3645
1.56                   0.4299653        -135.141
1.564                  0.3027372       -135.9415
1.568                  0.1788061        -127.001
1.572                  0.1074257       -80.82858
1.576                   0.179876       -35.10284
1.58                   0.3040796       -26.34761
1.584                  0.4314964       -27.23411
1.588                  0.5520839       -31.08696
1.592                  0.6614582       -36.10765
1.596                  0.7568637       -41.61275
1.6                    0.8365033       -47.26756
1.604                  0.8994108       -52.87043
1.608                  0.9454375       -58.27666
1.612                  0.9752569       -63.36763
1.616                  0.9903571       -68.03809
1.62                   0.9929973        -72.1933
1.624                  0.9861179       -75.75331
1.628                  0.9731754       -78.66397
1.632                  0.9578805       -80.91345
1.636                  0.9438255       -82.54984
1.64                   0.9340268       -83.69121
1.644                  0.9304737       -84.51748
1.648                  0.9338265       -85.23984
1.652                  0.9433921        -86.0561
1.656                  0.9573996       -87.11086
1.66                   0.9734677       -88.47573
1.664                  0.9891093       -90.15151
1.668                   1.002149       -92.08443
1.672                   1.011006       -94.18619
1.676                   1.014835        -96.3519
1.68                    1.013574        -98.4746
1.684                   1.007887       -100.4569
1.688                  0.9990479       -102.2215
1.692                  0.9887477        -103.721
1.696                  0.9788417        -104.947
1.7                    0.9710592       -105.9336
1.704                  0.9667116       -106.7549
1.708                   0.966466       -107.5115
1.712                  0.9702399       -108.3108
1.716                  0.9772536       -109.2446
1.72                   0.9862179       -110.3723
1.724                   0.995601       -111.7143
1.728                   1.003905        -113.253
1.732                     1.0099       -114.9414
1.736                   1.012788       -116.7135
1.74                    1.012291       -118.4948
1.744                    1.00866       -120.2128
1.748                   1.002622       -121.8057
1.752                  0.9952657       -123.2315
1.756                  0.9878666       -124.4744
1.76                   0.9816866       -125.5487
1.764                  0.9777608        -126.498
1.768                  0.9767166       -127.3876
1.772                   0.978668       -128.2925
1.776                  0.9832088       -129.2825
1.78                   0.9895069       -130.4089
1.784                  0.9964726       -131.6966
1.788                   1.002958       -133.1424
1.792                   1.007948       -134.7181
1.796                   1.010708       -136.3775
1.8                     1.010883       -138.0642
1.804                   1.008532       -139.7196
1.808                   1.004113       -141.2917
1.812                  0.9984009       -142.7416
1.816                  0.9923715       -144.0499
1.82                   0.9870426       -145.2207
1.824                  0.9833058       -146.2818
1.828                  0.9817722       -147.2802
1.832                  0.9826665        -148.274
1.836                  0.9857929        -149.321
1.84                   0.9905812       -150.4679
1.844                  0.9962002       -151.7424
1.848                   1.001711       -153.1496
1.852                   1.006224        -154.673
1.856                   1.009043       -156.2789
1.86                    1.009757        -157.922
1.864                   1.008303        -159.553
1.868                   1.004957       -161.1251
1.872                   1.000297       -162.6012
1.876                  0.9951078        -163.959
1.88                   0.9902561       -165.1954
1.884                   0.986551       -166.3279
1.888                  0.9846035       -167.3916
1.892                  0.9847211       -168.4338
1.896                  0.9868551        -169.505
1.9                    0.9906154       -170.6493
1.904                  0.9953466       -171.8967
1.908                    1.00025       -173.2585
1.912                   1.004521       -174.7268
1.916                   1.007477       -176.2765
1.92                    1.008664       -177.8707
1.924                   1.007917       -179.4661
1.928                   1.005383        178.9802
1.932                   1.001493         177.505
1.936                  0.9968933         176.133
1.94                     0.99235        174.8729
1.944                  0.9886182        173.7151
1.948                  0.9863175        172.6329
1.952                  0.9858237        171.5866
1.956                  0.9872022        170.5309
1.96                      0.9902        169.4232
1.964                  0.9942941        168.2313
1.968                  0.9987885         166.939
1.972                   1.002936        165.5475
1.976                   1.006063        164.0746
1.98                     1.00767        162.5512
1.984                   1.007512        161.0158
1.988                   1.005629        159.5089
1.992                   1.002336        158.0672
1.996                  0.9981786        156.7179
2                      0.9938443        155.4742
2.004                  0.9900538        154.3326
2.008                  0.9874399        153.2731
2.012                  0.9864374        152.2618
2.016                  0.9872066        151.2572
2.02                   0.9896045        150.2174
2.024                  0.9932127        149.1082
2.028                  0.9974151         147.909
2.032                   1.001506        146.6154
2.036                    1.00481        145.2394
2.04                    1.006788        143.8069
2.044                   1.007124        142.3529
2.048                   1.005766        140.9161
2.052                   1.002938        139.5336
2.056                  0.9991026        138.2349
2.06                   0.9948897        137.0372
2.064                  0.9909986        135.9422
2.068                  0.9880803        134.9352
2.072                  0.9866256        133.9869
2.076                  0.9868768        133.0584
2.08                   0.9887845        132.1082
2.084                  0.9920159        131.0999
2.088                  0.9960168        130.0086
2.092                   1.000109        128.8252
2.096                   1.003607        127.5566
2.1                     1.005931        126.2246
2.104                   1.006694        124.8614
2.108                   1.005766        123.5051
2.112                    1.00329        122.1933
2.116                  0.9996613        120.9582
2.12                   0.9954696        119.8208
2.124                  0.9914053        118.7877
2.128                   0.988147        117.8487
2.132                  0.9862445        116.9782
2.136                  0.9860206        116.1389
2.14                   0.9875113        115.2889
2.144                  0.9904576         114.389
2.148                  0.9943524        113.4102
2.152                  0.9985308        112.3382
2.156                   1.002284        111.1755
2.16                    1.004979        109.9403
2.164                   1.006155        108.6631
2.168                   1.005601        107.3817
2.172                   1.003383        106.1356
2.176                  0.9998416        104.9601
2.18                   0.9955375        103.8808
2.184                  0.9911701        102.9092
2.188                  0.9874629        102.0395
2.192                  0.9850413        101.2491
2.196                  0.9843206        100.5019
2.2                    0.9854276        99.75394
2.204                  0.9881746        98.96213
2.208                  0.9920909        98.09188
2.212                  0.9965059        97.12314
2.216                   1.000665        96.05351
2.22                    1.003855        94.89782
2.224                    1.00552        93.68534
2.228                   1.005347        92.45497
2.232                   1.003317        91.24937
2.236                  0.9997122        90.10891
2.24                   0.9950798        89.06532
2.244                  0.9901507        88.13636
2.248                  0.9857279        87.32187
2.252                  0.9825521        86.60241
2.256                  0.9811706        85.94151
2.26                   0.9818333        85.29161
2.264                  0.9844397        84.60258
2.268                  0.9885512        83.83114
2.272                  0.9934654        82.94856
2.276                  0.9983361        81.94538
2.28                    1.002314        80.83232
2.284                   1.004682        79.63783
2.288                   1.004971        78.40359
2.292                   1.003031        77.17836
2.296                  0.9990646         76.0112
2.3                    0.9936081        74.94444
2.304                  0.9874632        74.00661
2.308                  0.9815833        73.20662
2.312                  0.9769224        72.53003
2.316                  0.9742692        71.93933
2.32                   0.9740973        71.37879
2.324                   0.976462        70.78414
2.328                  0.9809738        70.09433
2.332                  0.9868544        69.26296
2.336                  0.9930624        68.26626
2.34                    0.998462        67.10626
2.344                      1.002        65.80962
2.348                   1.002867        64.42317
2.352                   1.000621        63.00763