! TOUCHSTONE file generated by CST MICROWAVE STUDIO
! Date and time: Tue Jun 14 14:31:15 2022
! Project name: AppElm_antenne_patch_FR4.cst
! Parameters = {L=45; W=58.5; e=0.035; h=1.6; lambda=0.190476; ls=114; w0=2.54; w1=0.847; ws=120; y0=18; y1=23.8}
! Header version: 2018
! Port assignment regex: !\s*Touchstone port\s*([0-9]+)\s*=\s*(CST MWS port|CST DS port)\s*([0-9]+|Zmin|Zmax)\s*\(\"(.*)\"\)(\s*mode\s*([0-9]+))?.*
! Touchstone port assignment:
! Touchstone port 1 = CST MWS port 1 ("")
# GHz S MA R 50
0                      0.9874705              -0
0.004                   0.988211       -9.977115
0.008                   0.990331       -19.86125
0.012                  0.9935411       -29.56424
0.016                  0.9974086       -39.00676
0.02                    1.001423       -48.12089
0.024                   1.005066       -56.85127
0.028                   1.007887       -65.15499
0.032                   1.009556       -73.00088
0.036                   1.009904       -80.36852
0.04                    1.008942       -87.24767
0.044                   1.006856       -93.63781
0.048                   1.003973       -99.54835
0.052                   1.000722       -104.9988
0.056                  0.9975656       -110.0186
0.06                   0.9949404       -114.6463
0.064                  0.9931912       -118.9277
0.068                  0.9925229       -122.9128
0.072                  0.9929737       -126.6519
0.076                  0.9944158       -130.1916
0.08                   0.9965806       -133.5712
0.084                  0.9991067       -136.8202
0.088                   1.001598       -139.9573
0.092                   1.003686       -142.9907
0.096                    1.00508       -145.9203
0.1                     1.005609       -148.7397
0.104                   1.005237       -151.4398
0.108                   1.004068       -154.0113
0.112                   1.002319       -156.4479
0.116                   1.000291       -158.7487
0.12                   0.9983125       -160.9188
0.124                  0.9966957       -162.9704
0.128                  0.9956825       -164.9214
0.132                  0.9954105       -166.7935
0.136                  0.9958938       -168.6094
0.14                   0.9970238       -170.3898
0.144                  0.9985931       -172.1511
0.148                   1.000332       -173.9032
0.152                   1.001952       -175.6491
0.156                   1.003199       -177.3851
0.16                    1.003884       -179.1024
0.164                   1.003917         179.211
0.168                   1.003314        177.5679
0.172                   1.002193        175.9795
0.176                   1.000753        174.4535
0.18                   0.9992387        172.9922
0.184                  0.9979017        171.5925
0.188                  0.9969579        170.2455
0.192                   0.996553        168.9384
0.196                  0.9967397        167.6562
0.2                    0.9974709        166.3839
0.204                  0.9986101        165.1092
0.208                   0.999956         163.824
0.212                   1.001279        162.5257
0.216                   1.002359         161.217
0.22                    1.003022        159.9053
0.224                   1.003166        158.6011
0.228                   1.002778        157.3164
0.232                   1.001934         156.062
0.236                   1.000783        154.8464
0.24                   0.9995225        153.6737
0.244                  0.9983672        152.5432
0.248                  0.9975099        151.4493
0.252                  0.9970903        150.3826
0.256                  0.9971719        149.3309
0.26                   0.9977323         148.282
0.264                  0.9986676        147.2252
0.268                  0.9998128        146.1532
0.272                    1.00097        145.0633
0.276                   1.001942        143.9575
0.28                    1.002567        142.8421
0.284                   1.002744        141.7264
0.288                   1.002448        140.6213
0.292                   1.001736        139.5371
0.296                   1.000732        138.4821
0.3                    0.9996115        137.4607
0.304                  0.9985656        136.4732
0.308                  0.9977731        135.5154
0.312                  0.9973672        134.5792
0.316                  0.9974139         133.654
0.32                   0.9979006        132.7287
0.324                  0.9987386        131.7936
0.328                   0.999781        130.8418
0.332                   1.000846        129.8706
0.336                    1.00175        128.8816
0.34                    1.002341        127.8807
0.344                   1.002519        126.8764
0.348                   1.002256         125.879
0.352                     1.0016        124.8984
0.356                   1.000667        123.9426
0.36                   0.9996185        123.0162
0.364                  0.9986354        122.1196
0.368                  0.9978882        121.2491
0.372                  0.9975052        120.3973
0.376                  0.9975511        119.5543
0.38                   0.9980162        118.7095
0.384                  0.9988178        117.8537
0.388                  0.9998152        116.9802
0.392                   1.000834        116.0865
0.396                   1.001699        115.1743
0.4                     1.002261        114.2489
0.404                   1.002424        113.3191
0.408                   1.002161        112.3945
0.412                   1.001518        111.4851
0.416                   1.000609        110.5984
0.42                   0.9995909        109.7392
0.424                  0.9986415        108.9078
0.428                  0.9979264        108.1005
0.432                  0.9975707        107.3099
0.436                  0.9976363        106.5265
0.44                   0.9981115        105.7398
0.444                  0.9989129        104.9409
0.448                  0.9998999        104.1233
0.452                     1.0009        103.2847
0.456                   1.001739        102.4269
0.46                     1.00227        101.5556
0.464                   1.002401        100.6793
0.468                   1.002109        99.80803
0.472                   1.001444        98.95138
0.476                   1.000521        98.11703
0.48                    0.999501        97.30935
0.484                   0.998561        96.52857
0.488                  0.9978661        95.77074
0.492                   0.997539        95.02831
0.496                  0.9976373        94.29145
0.5                    0.9981442        93.54983
0.504                  0.9989705        92.79441
0.508                  0.9999712         92.0191
0.512                    1.00097         91.2218
0.516                   1.001792        90.40467
0.52                    1.002292        89.57379
0.524                   1.002381        88.73802
0.528                   1.002042        87.90759
0.532                   1.001332        87.09219
0.536                   1.000373        86.29942
0.54                   0.9993335        85.53339
0.544                  0.9983942        84.79395
0.548                  0.9977213        84.07669
0.552                  0.9974345        83.37353
0.556                   0.997586        82.67431
0.56                   0.9981504        81.96845
0.564                  0.9990295        81.24691
0.568                   1.000069        80.50381
0.572                   1.001085        79.73747
0.576                     1.0019        78.95058
0.58                    1.002368         78.1498
0.584                   1.002406        77.34461
0.588                   1.002005        76.54556
0.592                   1.001231        75.76254
0.596                    1.00022        75.00314
0.6                    0.9991461        74.27108
0.604                  0.9981998        73.56572
0.608                  0.9975489        72.88192
0.612                  0.9973105        72.21101
0.616                  0.9975291        71.54216
0.62                   0.9981683        70.86448
0.624                  0.9991169        70.16887
0.628                   1.000208        69.44974
0.632                   1.001248        68.70589
0.636                   1.002054        67.94077
0.64                    1.002481        67.16186
0.644                   1.002452        66.37931
0.648                   1.001967        65.60422
0.652                   1.001107        64.84677
0.656                   1.000022        64.11439
0.66                   0.9989014        63.41047
0.664                  0.9979421        62.73362
0.668                  0.9973161        62.07784
0.672                   0.997137        61.43352
0.676                  0.9974397        60.78915
0.68                   0.9981737        60.13335
0.684                  0.9992108        59.45697
0.688                   1.000369         58.7547
0.692                   1.001443        58.02604
0.696                   1.002242        57.27535
0.7                     1.002622        56.51105
0.704                   1.002513         55.7442
0.708                   1.001929        54.98655
0.712                   1.000969        54.24858
0.716                  0.9997983        53.53762
0.72                   0.9986229        52.85652
0.724                  0.9976512        52.20301
0.728                  0.9970581        51.57001
0.732                  0.9969527        50.94685
0.736                   0.997358        50.32113
0.74                   0.9982057        49.68093
0.744                   0.999348        49.01704
0.748                   1.000584        48.32456
0.752                   1.001693        47.60388
0.756                   1.002478        46.86041
0.76                    1.002796        46.10376
0.764                   1.002586        45.34602
0.768                   1.001878        44.59975
0.772                   1.000792        43.87573
0.776                  0.9995154        43.18115
0.78                   0.9982712        42.51818
0.784                  0.9972811        41.88352
0.788                  0.9967236         41.2688
0.792                   0.996702        40.66207
0.796                  0.9972245        40.04987
0.8                    0.9982021        39.41969
0.804                  0.9994633         38.7623
0.808                   1.000785        38.07334
0.812                   1.001931        37.35416
0.816                   1.002696        36.61149
0.82                    1.002939        35.85631
0.824                    1.00261        35.10192
0.828                   1.001759        34.36173
0.832                    1.00053        33.64689
0.836                  0.9991351        32.96433
0.84                   0.9978198        32.31541
0.844                  0.9968189        31.69555
0.848                  0.9963144        31.09488
0.852                  0.9964019        30.49992
0.856                  0.9970716        29.89603
0.86                   0.9982094        29.27005
0.864                  0.9996161        28.61274
0.868                   1.001043        27.92041
0.872                   1.002236        27.19562
0.876                    1.00298        26.44663
0.88                    1.003137          25.686
0.884                   1.002671        24.92845
0.888                   1.001656        24.18835
0.892                   1.000263        23.47723
0.896                  0.9987347         22.8017
0.9                    0.9973399        22.16218
0.904                  0.9963291        21.55257
0.908                  0.9958876        20.96122
0.912                  0.9961013        20.37294
0.916                   0.996939        19.77172
0.92                   0.9982572         19.1437
0.924                  0.9998246        18.47971
0.928                   1.001363        17.77688
0.932                   1.002598         17.0392
0.936                   1.003305         16.2767
0.94                    1.003349        15.50382
0.944                   1.002714        14.73686
0.948                   1.001499         13.9913
0.952                  0.9999093        13.27909
0.956                  0.9982211        12.60645
0.96                   0.9967319         11.9726
0.964                  0.9957098        11.36968
0.968                  0.9953436        10.78393
0.972                  0.9957071        10.19813
0.976                  0.9967438        9.594702
0.98                   0.9982755        8.958975
0.984                   1.000033        8.281873
0.988                   1.001705        7.561526
0.992                   1.002992        6.803578
0.996                   1.003659        6.020166
1                       1.003577        5.227846
1.004                   1.002748        4.444804
1.008                   1.001306        3.687793
1.012                  0.9994944        2.969214
1.016                  0.9976279        2.294815
1.02                   0.9960375        1.662427
1.024                  0.9950117        1.062067
1.028                  0.9947425       0.4775159
1.032                  0.9952895      -0.1108361
1.036                  0.9965655      -0.7223914
1.04                   0.9983509       -1.372746
1.044                   1.000333       -2.070824
1.048                   1.002159       -2.817304
1.052                   1.003501       -3.604541
1.056                   1.004113       -4.417928
1.06                    1.003872        -5.23836
1.064                   1.002803       -6.045425
1.068                   1.001077       -6.820824
1.072                  0.9989867        -7.55157
1.076                  0.9968926       -8.232443
1.08                   0.9951659       -8.867243
1.084                  0.9941202        -9.46849
1.088                  0.9939526       -10.05534
1.092                  0.9947057       -10.65025
1.096                  0.9962565       -11.27491
1.1                    0.9983368       -11.94602
1.104                    1.00058       -12.67237
1.108                   1.002587       -13.45325
1.112                   1.003994       -14.27866
1.116                   1.004538       -15.13105
1.12                    1.004105       -15.98826
1.124                   1.002747       -16.82717
1.128                   1.000682       -17.62759
1.132                  0.9982569       -18.37576
1.136                  0.9958912       -19.06705
1.14                   0.9940057       -19.70721
1.144                  0.9929455        -20.3118
1.148                  0.9929151        -20.9037
1.152                  0.9939372       -21.50899
1.156                  0.9958455       -22.15211
1.16                   0.9983113       -22.85131
1.164                   1.000902       -23.61525
1.168                   1.003158       -24.44161
1.172                    1.00467       -25.31751
1.176                   1.005154       -26.22182
1.18                      1.0045       -27.12854
1.184                   1.002794       -28.01114
1.188                   1.000309       -28.84686
1.192                  0.9974601       -29.62078
1.196                  0.9947416       -30.32881
1.2                    0.9926378       -30.97899
1.204                   0.991537       -31.59065
1.208                  0.9916561        -32.1913
1.212                  0.9929965       -32.81165
1.216                  0.9953387       -33.47986
1.22                   0.9982789       -34.21623
1.224                     1.0013       -35.02948
1.228                   1.003863       -35.91536
1.232                   1.005499       -36.85747
1.236                   1.005892       -37.83009
1.24                    1.004937       -38.80231
1.244                   1.002756       -39.74297
1.248                   0.999691       -40.62581
1.252                  0.9962497       -41.43403
1.256                  0.9930233        -42.1639
1.26                   0.9905858       -42.82619
1.264                  0.9893886       -43.44515
1.268                  0.9896724       -44.05451
1.272                  0.9914159       -44.69144
1.276                  0.9943333       -45.38941
1.28                   0.9979222       -46.17191
1.284                   1.001551       -47.04815
1.288                    1.00457       -48.01166
1.292                   1.006424        -49.0416
1.296                   1.006746       -50.10622
1.3                     1.005424       -51.16793
1.304                   1.002626        -52.1891
1.308                  0.9987824       -53.13815
1.312                  0.9945219       -53.99516
1.316                  0.9905746       -54.75623
1.32                   0.9876449       -55.43548
1.324                  0.9862822       -56.06373
1.328                   0.986772       -56.68365
1.332                  0.9890708       -57.34187
1.336                  0.9928056       -58.08003
1.34                   0.9973348       -58.92681
1.344                   1.001861       -59.89278
1.348                    1.00557       -60.96886
1.352                   1.007766       -62.12822
1.356                   1.007996       -63.33064
1.36                    1.006122       -64.52875
1.364                   1.002362        -65.6749
1.368                  0.9972654       -66.72873
1.372                  0.9916383       -67.66432
1.376                  0.9864244        -68.4761
1.38                   0.9825424       -69.18197
1.384                   0.980716       -69.82229
1.388                  0.9813261       -70.45363
1.392                  0.9843209       -71.13833
1.396                  0.9892094       -71.93231
1.4                    0.9951415       -72.87414
1.404                   1.001056       -73.97816
1.408                   1.005861       -75.23271
1.412                   1.008621       -76.60273
1.416                   1.008705       -78.03532
1.42                    1.005903       -79.46746
1.424                   1.000474       -80.83459
1.428                  0.9931342       -82.08017
1.432                  0.9849754       -83.16549
1.436                  0.9773103       -84.07894
1.44                   0.9714594       -84.84241
1.444                  0.9685044       -85.51168
1.448                  0.9690587       -86.16928
1.452                  0.9731137       -86.90921
1.456                  0.9800063       -87.81807
1.46                     0.98852       -88.95785
1.464                  0.9970926        -90.3552
1.468                   1.004077       -91.99871
1.472                   1.008005       -93.84271
1.476                   1.007811       -95.81494
1.48                    1.003006       -97.82578
1.484                  0.9937806       -99.77869
1.488                  0.9810348       -101.5821
1.492                  0.9663207       -103.1636
1.496                  0.9516755       -104.4876
1.5                    0.9393318       -105.5721
1.504                  0.9313149       -106.5008
1.508                  0.9289896       -107.4203
1.512                  0.9326719       -108.5181
1.516                  0.9414394       -109.9862
1.52                   0.9532058       -111.9837
1.524                  0.9650224       -114.6138
1.528                  0.9734894       -117.9195
1.532                  0.9751615       -121.8943
1.536                  0.9668753       -126.4987
1.54                   0.9459784       -131.6755
1.544                  0.9104761       -137.3624
1.548                  0.8591081       -143.4998
1.552                  0.7913783       -150.0378
1.556                  0.7075479       -156.9422
1.56                   0.6086003       -164.2061
1.564                  0.4961856       -171.8789
1.568                  0.3725599        179.8421
1.572                  0.2405836        170.1987
1.576                  0.1044974        154.1875
1.58                  0.04811339        16.38946
1.584                  0.1812636       -16.88349
1.588                  0.3156537       -27.94804
1.592                  0.4431721       -36.66334
1.596                  0.5606146       -44.56914
1.6                     0.665487       -52.01138
1.604                  0.7558854       -59.08513
1.608                  0.8305451       -65.80282
1.612                  0.8888993       -72.14052
1.616                  0.9311231       -78.05454
1.62                   0.9581504        -83.4893
1.624                  0.9716622       -88.38339
1.628                  0.9740297       -92.67674
1.632                  0.9682015       -96.32087
1.636                  0.9575149       -99.29309
1.64                   0.9454131       -101.6129
1.644                  0.9350749        -103.356
1.648                  0.9289991       -104.6576
1.652                  0.9286436       -105.6977
1.656                  0.9342414       -106.6696
1.66                   0.9448735        -107.741
1.664                  0.9587772        -109.025
1.668                  0.9737796       -110.5688
1.672                  0.9877285       -112.3599
1.676                  0.9988317       -114.3412
1.68                    1.005876       -116.4294
1.684                    1.00833       -118.5296
1.688                   1.006356       -120.5484
1.692                   1.000739       -122.4047
1.696                  0.9927546       -124.0387
1.7                    0.9839685       -125.4211
1.704                  0.9760009       -126.5583
1.708                  0.9702631       -127.4937
1.712                  0.9677224       -128.3016
1.716                   0.968743        -129.073
1.72                   0.9730466       -129.8977
1.724                  0.9798012       -130.8469
1.728                  0.9878103       -131.9613
1.732                  0.9957499        -133.248
1.736                   1.002398       -134.6835
1.74                    1.006819       -136.2212
1.744                   1.008483       -137.8014
1.748                   1.007318       -139.3602
1.752                   1.003695       -140.8387
1.756                  0.9983568       -142.1905
1.76                   0.9922943       -143.3891
1.764                   0.986585       -144.4316
1.768                  0.9822156       -145.3406
1.772                  0.9799153       -146.1601
1.776                   0.980032       -146.9481
1.78                   0.9824825       -147.7649
1.784                  0.9867853       -148.6619
1.788                  0.9921659       -149.6725
1.792                  0.9977075       -150.8078
1.796                   1.002515       -152.0569
1.8                     1.005857       -153.3903
1.804                   1.007273       -154.7667
1.808                    1.00663       -156.1392
1.812                   1.004126       -157.4628
1.816                   1.000255       -158.7009
1.82                   0.9957148       -159.8303
1.824                  0.9912979       -160.8453
1.828                   0.987756       -161.7589
1.832                  0.9856744       -162.6008
1.836                  0.9853731        -163.412
1.84                   0.9868564       -164.2372
1.844                  0.9898237       -165.1163
1.848                  0.9937328       -166.0775
1.852                  0.9979059       -167.1332
1.856                    1.00165       -168.2786
1.86                    1.004372       -169.4944
1.864                    1.00567       -170.7501
1.868                   1.005385         -172.01
1.872                    1.00362       -173.2386
1.876                   1.000716       -174.4053
1.88                   0.9971894       -175.4902
1.884                  0.9936496        -176.486
1.888                  0.9906942       -177.4002
1.892                  0.9888098       -178.2537
1.896                  0.9882899       -179.0769
1.9                    0.9891883       -179.9043
1.904                  0.9913163        179.2318
1.908                  0.9942834        178.3069
1.912                  0.9975721        177.3088
1.916                   1.000631        176.2379
1.92                    1.002968        175.1074
1.924                   1.004225        173.9396
1.928                   1.004231        172.7626
1.932                   1.003026        171.6051
1.936                   1.000841        170.4927
1.94                   0.9980633        169.4434
1.944                  0.9951694        168.4652
1.948                  0.9926437        167.5546
1.952                  0.9908997        166.6972
1.956                  0.9902092          165.87
1.96                   0.9906608        165.0462
1.964                  0.9921477         164.199
1.968                  0.9943928        163.3074
1.972                  0.9970013        162.3587
1.976                  0.9995316        161.3509
1.98                     1.00157        160.2918
1.984                   1.002798        159.1979
1.988                   1.003036        158.0908
1.992                    1.00227         156.994
1.996                   1.000649        155.9289
2                      0.9984553        154.9121
2.004                  0.9960588        153.9523
2.008                  0.9938536        153.0491
2.012                  0.9921938        152.1934
2.016                  0.9913359        151.3684
2.02                   0.9913965         150.553
2.024                   0.992338        149.7255
2.028                  0.9939777        148.8671
2.032                  0.9960243        147.9653
2.036                  0.9981289        147.0153
2.04                   0.9999452        146.0209
2.044                   1.001184         144.993
2.048                   1.001658        143.9478
2.052                   1.001304        142.9039
2.056                   1.000196        141.8796
2.06                   0.9985218        140.8901
2.064                  0.9965563        139.9449
2.068                  0.9946142        139.0469
2.072                  0.9929999        138.1914
2.076                  0.9919575        137.3674
2.08                   0.9916337        136.5593
2.084                   0.992056        135.7493
2.088                  0.9931316        134.9209
2.092                  0.9946645        134.0614
2.096                  0.9963929        133.1634
2.1                    0.9980302        132.2264
2.104                  0.9993129         131.256
2.108                   1.000038        130.2632
2.112                   1.000095        129.2621
2.116                  0.9994761        128.2681
2.12                   0.9982772        127.2953
2.124                  0.9966804        126.3546
2.128                  0.9949253        125.4522
2.132                  0.9932717        124.5883
2.136                  0.9919591        123.7577
2.14                   0.9911713        122.9499
2.144                  0.9910085        122.1514
2.148                  0.9914727        121.3474
2.152                  0.9924699        120.5245
2.156                  0.9938253        119.6722
2.16                   0.9953119        118.7851
2.164                  0.9966852        117.8631
2.168                  0.9977192        116.9112
2.172                    0.99824         115.939
2.176                  0.9981486         114.959
2.18                   0.9974359        113.9847
2.184                   0.996183         113.029
2.188                  0.9945505        112.1022
2.192                  0.9927561        111.2103
2.196                   0.991043        110.3545
2.2                    0.9896459        109.5303
2.204                  0.9887556        108.7283
2.208                  0.9884888        107.9354
2.212                  0.9888698        107.1367
2.216                  0.9898235        106.3177
2.22                   0.9911857        105.4664
2.224                  0.9927244        104.5753
2.228                  0.9941734        103.6425
2.232                  0.9952705         102.672
2.236                  0.9957958        101.6732
2.24                   0.9956059        100.6598
2.244                  0.9946569        99.64762
2.248                  0.9930157        98.65275
2.252                  0.9908553        97.68901
2.256                  0.9884353        96.76577
2.26                    0.986067        95.88614
2.264                  0.9840689        95.04589
2.268                   0.982716        94.23351
2.272                  0.9821932        93.43146
2.276                  0.9825587        92.61858
2.28                   0.9837265        91.77333
2.284                  0.9854718        90.87729
2.288                   0.987459        89.91826
2.292                  0.9892897        88.89233
2.296                  0.9905619        87.80478
2.3                    0.9909329         86.6695
2.304                  0.9901757         85.5072
2.308                  0.9882209        84.34261
2.312                  0.9851792        83.20095
2.316                  0.9813365        82.10394
2.32                   0.9771236        81.06583
2.324                  0.9730579        80.09015
2.328                  0.9696633        79.16747
2.332                  0.9673817        78.27534
2.336                  0.9664854        77.38064
2.34                   0.9670146        76.44422
2.344                  0.9687479        75.42722
2.348                  0.9712208        74.29769
2.352                   0.973785        73.03588