! TOUCHSTONE file generated by CST MICROWAVE STUDIO
! Date and time: Tue Jun 14 14:31:12 2022
! Project name: AppElm_antenne_patch_FR4.cst
! Parameters = {L=45; W=58.5; e=0.035; h=1.6; lambda=0.190476; ls=96; w0=2.54; w1=0.847; ws=120; y0=18; y1=23.8}
! Header version: 2018
! Port assignment regex: !\s*Touchstone port\s*([0-9]+)\s*=\s*(CST MWS port|CST DS port)\s*([0-9]+|Zmin|Zmax)\s*\(\"(.*)\"\)(\s*mode\s*([0-9]+))?.*
! Touchstone port assignment:
! Touchstone port 1 = CST MWS port 1 ("")
# GHz S MA R 50
0                      0.9875564              -0
0.004                  0.9882944       -9.976895
0.008                   0.990407       -19.86078
0.012                  0.9936052       -29.56346
0.016                  0.9974573       -39.00556
0.02                    1.001454       -48.11915
0.024                   1.005078       -56.84884
0.028                   1.007881       -65.15171
0.032                   1.009533       -72.99656
0.036                   1.009869       -80.36309
0.04                    1.008901       -87.24099
0.044                   1.006814       -93.62991
0.048                   1.003938       -99.53936
0.052                   1.000699        -104.989
0.056                  0.9975611       -110.0082
0.06                   0.9949567       -114.6359
0.064                  0.9932282       -118.9177
0.068                  0.9925777       -122.9037
0.072                  0.9930402       -126.6441
0.076                  0.9944857       -130.1854
0.08                   0.9966447       -133.5666
0.084                   0.999156        -136.817
0.088                   1.001625        -139.955
0.092                   1.003687        -142.989
0.096                   1.005053       -145.9185
0.1                     1.005557       -148.7373
0.104                   1.005167       -151.4362
0.108                   1.003988       -154.0063
0.112                   1.002242       -156.4414
0.116                   1.000225       -158.7408
0.12                   0.9982679       -160.9099
0.124                  0.9966779       -162.9611
0.128                  0.9956933       -164.9122
0.132                  0.9954472       -166.7851
0.136                  0.9959494       -168.6022
0.14                   0.9970887       -170.3843
0.144                  0.9986559       -172.1472
0.148                   1.000381       -173.9009
0.152                   1.001981       -175.6478
0.156                   1.003201       -177.3843
0.16                    1.003859       -179.1014
0.164                   1.003869        179.2128
0.168                   1.003251        177.5709
0.172                   1.002126        175.9841
0.176                   1.000693        174.4595
0.18                    0.999196        172.9994
0.184                  0.9978842        171.6004
0.188                  0.9969692        170.2535
0.192                  0.9965917        168.9458
0.196                     0.9968        167.6624
0.2                    0.9975431        166.3885
0.204                  0.9986819         165.112
0.208                   1.000016        163.8252
0.212                   1.001318        162.5257
0.216                    1.00237        161.2164
0.22                    1.003003        159.9048
0.224                   1.003121        158.6014
0.228                   1.002716        157.3179
0.232                   1.001864        156.0652
0.236                   1.000718        154.8512
0.24                   0.9994741        153.6798
0.244                  0.9983438        152.5501
0.248                  0.9975158        151.4565
0.252                  0.9971246        150.3892
0.256                  0.9972288        149.3364
0.26                   0.9978018        148.2859
0.264                  0.9987376        147.2273
0.268                  0.9998705        146.1537
0.272                   1.001005        145.0626
0.276                   1.001948        143.9562
0.28                    1.002542        142.8409
0.284                   1.002692        141.7261
0.288                   1.002378        140.6224
0.292                   1.001658        139.5399
0.296                   1.000661        138.4866
0.3                    0.9995576        137.4667
0.304                  0.9985388        136.4802
0.308                  0.9977779        135.5226
0.312                  0.9974025        134.5859
0.316                  0.9974736        133.6595
0.32                   0.9979738        132.7325
0.324                  0.9988129        131.7956
0.328                  0.9998428        130.8421
0.332                   1.000884        129.8697
0.336                   1.001759        128.8802
0.34                    1.002319        127.8794
0.344                   1.002469         126.876
0.348                   1.002188        125.8801
0.352                   1.001527        124.9013
0.356                   1.000602        123.9473
0.36                   0.9995736        123.0223
0.364                  0.9986202        122.1266
0.368                  0.9979065        121.2562
0.372                  0.9975549        120.4037
0.376                  0.9976252        119.5592
0.38                   0.9981027        118.7126
0.384                  0.9989026        117.8548
0.388                  0.9998844        116.9795
0.392                   1.000877        116.0846
0.396                   1.001709        115.1718
0.4                     1.002236        114.2467
0.404                   1.002369        113.3179
0.408                   1.002087         112.395
0.412                   1.001439        111.4874
0.416                   1.000538        110.6027
0.42                   0.9995415         109.745
0.424                  0.9986227        108.9144
0.428                  0.9979418        108.1072
0.432                  0.9976177        107.3159
0.436                  0.9977065         106.531
0.44                   0.9981925        105.7424
0.444                  0.9989893        104.9415
0.448                  0.9999578        104.1222
0.452                   1.000928        103.2824
0.456                   1.001731        102.4243
0.46                    1.002227        101.5535
0.464                    1.00233        100.6786
0.468                   1.002021        99.80915
0.472                   1.001354        98.95467
0.476                   1.000444        98.12237
0.48                   0.9994502        97.31627
0.484                   0.998546        96.53632
0.488                    0.99789        95.77843
0.492                  0.9975977        95.03503
0.496                   0.997721        94.29648
0.5                    0.9982384        93.55273
0.504                  0.9990593        92.79515
0.508                   1.000039        92.01801
0.512                   1.001006        91.21954
0.516                   1.001791         90.4021
0.52                    1.002254        89.57182
0.524                   1.002314         88.7375
0.528                   1.001959        87.90905
0.532                    1.00125        87.09588
0.536                   1.000308        86.30513
0.54                   0.9992984        85.54057
0.544                  0.9983974        84.80178
0.548                  0.9977644        84.08417
0.552                  0.9975121        83.37976
0.556                  0.9976859        82.67856
0.56                   0.9982568        81.97034
0.564                  0.9991246         81.2465
0.568                   1.000137        80.50156
0.572                   1.001116        79.73414
0.576                   1.001888        78.94716
0.58                    1.002316        78.14732
0.584                   1.002324         77.3439
0.588                   1.001907        76.54718
0.592                   1.001137         75.7667
0.596                   1.000146         75.0095
0.6                    0.9991065          74.279
0.604                  0.9982029        73.57428
0.608                  0.9975953        72.89004
0.612                   0.997393         72.2177
0.616                  0.9976341        71.54672
0.62                   0.9982782        70.86655
0.624                   0.999213        70.16859
0.628                   1.000274        69.44765
0.632                   1.001274         68.7029
0.636                   1.002036        67.93793
0.64                    1.002424        67.16022
0.644                   1.002367        66.37972
0.648                   1.001872         65.6072
0.652                   1.001022        64.85237
0.656                  0.9999644        64.12223
0.66                    0.998885        63.41971
0.664                  0.9979742        62.74319
0.668                  0.9973954        62.08658
0.672                  0.9972536         61.4404
0.676                  0.9975775        60.79343
0.68                   0.9983124        60.13477
0.684                  0.9993301        59.45576
0.688                   1.000452        58.75157
0.692                   1.001479        58.02201
0.696                   1.002228        57.27162
0.7                     1.002566        56.50876
0.704                   1.002428        55.74424
0.708                   1.001834        54.98941
0.712                   1.000886        54.25425
0.716                  0.9997465        53.54559
0.72                   0.9986162        52.86585
0.724                  0.9976958         52.2125
0.728                  0.9971506        51.57844
0.732                  0.9970813        50.95316
0.736                  0.9975039        50.32462
0.74                   0.9983468        49.68144
0.744                  0.9994628        49.01494
0.748                   1.000655        48.32074
0.752                   1.001712         47.5995
0.756                   1.002444         46.8568
0.76                    1.002719        46.10212
0.764                   1.002483        45.34725
0.768                   1.001772        44.60425
0.772                   1.000706        43.88337
0.776                  0.9994699        43.19124
0.78                   0.9982809         42.5296
0.784                   0.997351        41.89487
0.788                   0.996848        41.27872
0.792                  0.9968661        40.66942
0.796                  0.9974067        40.05396
0.8                    0.9983773        39.42044
0.804                  0.9996084         38.7602
0.808                   1.000882        38.06941
0.812                   1.001972        37.34974
0.816                   1.002682        36.60801
0.82                    1.002881        35.85503
0.824                   1.002529        35.10374
0.828                    1.00168        34.36697
0.832                   1.000478        33.65526
0.836                  0.9991315        32.97497
0.84                   0.9978778        32.32702
0.844                  0.9969413        31.70658
0.848                  0.9964922        31.10385
0.852                  0.9966165        30.50569
0.856                  0.9972972        29.89798
0.86                   0.9984183        29.26825
0.864                  0.9997831        28.60791
0.868                    1.00115        27.91382
0.872                   1.002276        27.18883
0.876                   1.002956        26.44125
0.88                    1.003065        25.68341
0.884                   1.002576        24.92954
0.888                   1.001566         24.1934
0.892                   1.000207        23.48581
0.896                  0.9987348        22.81276
0.9                    0.9974098         22.1742
0.904                  0.9964698        21.56382
0.908                  0.9960878        20.97009
0.912                  0.9963388        20.37823
0.916                   0.997185        19.77287
0.92                   0.9984812        19.14091
0.924                          1        18.47388
0.928                   1.001472         17.7695
0.932                   1.002635          17.032
0.936                   1.003277        16.27143
0.94                    1.003277        15.50189
0.944                   1.002625        14.73913
0.948                   1.001426        13.99788
0.952                  0.9998839        13.28933
0.956                  0.9982664          12.619
0.96                   0.9968599        11.98565
0.964                  0.9959187        11.38124
0.968                  0.9956174        10.79221
0.972                  0.9960182        10.20187
0.976                  0.9970579        9.593425
0.98                   0.9985574        8.953055
0.984                   1.000254         8.27248
0.988                   1.001846        7.550421
0.992                   1.003048        6.792792
0.996                    1.00364        6.011657
1                       1.003508        5.223161
1.004                   1.002662        4.444816
1.008                   1.001238        3.692532
1.012                  0.9994789        2.977847
1.016                  0.9976897        2.305759
1.02                    0.996188        1.673614
1.024                  0.9952462        1.071307
1.028                  0.9950408       0.4829047
1.032                  0.9956187      -0.1105463
1.036                  0.9968866      -0.7275451
1.04                   0.9986257       -1.382708
1.044                    1.00053        -2.08409
1.048                   1.002261       -2.831768
1.052                   1.003508       -3.617859
1.056                   1.004039       -4.427916
1.06                    1.003747       -5.243367
1.064                   1.002668       -6.044615
1.068                   1.000975       -6.814351
1.072                  0.9989557       -7.540576
1.076                  0.9969602       -8.218893
1.08                   0.9953433       -8.853663
1.084                  0.9943995       -9.457453
1.088                  0.9943083         -10.049
1.092                  0.9950986       -10.65006
1.096                  0.9966409       -11.28114
1.1                    0.9986687       -11.95785
1.104                   1.000825       -12.68802
1.108                   1.002726       -13.47024
1.112                   1.004027       -14.29437
1.116                   1.004486       -15.14304
1.12                    1.004003       -15.99479
1.124                   1.002641       -16.82744
1.128                    1.00062       -17.62196
1.132                  0.9982812       -18.36571
1.136                    0.99603       -19.05497
1.14                   0.9942673       -19.69604
1.144                  0.9933163        -20.3045
1.148                  0.9933613       -20.90268
1.152                  0.9944103       -21.51563
1.156                  0.9962904       -22.16652
1.16                   0.9986767       -22.87223
1.164                   1.001149       -23.64034
1.168                   1.003267       -24.46783
1.172                   1.004644       -25.34166
1.176                   1.005021         -26.241
1.18                    1.004304       -27.14072
1.184                   1.002591       -28.01544
1.188                   1.000156       -28.84375
1.192                   0.997409       -29.61208
1.196                  0.9948245       -30.31741
1.2                    0.9928643       -30.96837
1.204                  0.9918905       -31.58428
1.208                   0.992096       -32.19198
1.212                  0.9934656       -32.82092
1.216                  0.9957732       -33.49771
1.22                   0.9986202       -34.24109
1.224                   1.001505       -35.05852
1.228                   1.003913       -35.94498
1.232                   1.005401       -36.88395
1.236                   1.005683       -37.85016
1.24                    1.004671       -38.81374
1.244                   1.002502       -39.74499
1.248                    0.99952       -40.61925
1.252                  0.9962199       -41.42138
1.256                  0.9931722       -42.14887
1.26                   0.9909209       -42.81327
1.264                  0.9898851       -43.43869
1.268                  0.9902761       -44.05798
1.272                  0.9920525       -44.70669
1.276                  0.9949209       -45.41633
1.28                   0.9983862       -46.20841
1.284                   1.001837       -47.09063
1.288                   1.004653       -48.05561
1.292                   1.006313       -49.08234
1.296                   1.006483        -50.1397
1.3                     1.005078       -51.19135
1.304                    1.00228       -52.20142
1.308                  0.9985206       -53.14033
1.312                  0.9944165       -53.99014
1.316                  0.9906701       -54.74858
1.32                   0.9879495        -55.4306
1.324                  0.9867632       -56.06696
1.328                  0.9873604       -56.69908
1.332                  0.9896727       -57.37156
1.336                  0.9933188       -58.12353
1.34                   0.9976674       -58.98119
1.344                   1.001948       -59.95322
1.348                   1.005384       -61.02943
1.352                   1.007325       -62.18287
1.356                   1.007358       -63.37415
1.36                    1.005381       -64.55747
1.364                   1.001633       -65.68743
1.368                  0.9966636       -66.72633
1.372                  0.9912656       -67.65093
1.376                  0.9863467       -68.45793
1.38                   0.9827767        -69.1666
1.384                  0.9812238       -69.81736
1.388                   0.982018       -70.46523
1.392                  0.9850715       -71.16987
1.396                  0.9898791       -71.98373
1.4                    0.9956027       -72.94196
1.404                   1.001215       -74.05631
1.408                   1.005675       -75.31358
1.412                   1.008103       -76.67844
1.416                   1.007929       -78.09899
1.42                    1.004988       -79.51422
1.424                  0.9995689       -80.86254
1.428                  0.9923957       -82.09096
1.432                  0.9845396       -83.16467
1.436                   0.977266       -84.07549
1.44                    0.971825       -84.84757
1.444                  0.9692153       -85.53706
1.448                  0.9699714       -86.22436
1.452                  0.9740255       -86.99927
1.456                  0.9806887       -87.94301
1.46                   0.9887581       -89.11223
1.464                  0.9967194       -90.52944
1.468                   1.002999       -92.18079
1.472                   1.006216       -94.01997
1.476                   1.005391       -95.97567
1.48                    1.000113       -97.96066
1.484                  0.9906312       -99.88202
1.488                  0.9778726        -101.653
1.492                  0.9633788       -103.2071
1.496                  0.9491311       -104.5149
1.5                    0.9372592       -105.6001
1.504                  0.9296491       -106.5493
1.508                  0.9275116       -107.5078
1.512                  0.9310282       -108.6571
1.516                   0.939192         -110.18
1.52                   0.9498983       -112.2257
1.524                  0.9602436       -114.8892
1.528                  0.9669203       -118.2085
1.532                  0.9666014       -122.1741
1.536                  0.9562498       -126.7453
1.54                   0.9333375       -131.8639
1.544                  0.8959823       -137.4652
1.548                  0.8430212       -143.4856
1.552                  0.7740376       -149.8671
1.556                  0.6893507       -156.5602
1.56                   0.5899773       -163.5289
1.564                  0.4775709        -170.761
1.568                  0.3543403       -178.3034
1.572                  0.2229634        173.5692
1.576                 0.08661419        162.5636
1.58                  0.05327945       -8.951607
1.584                  0.1900689       -23.35863
1.588                  0.3228198       -31.76853
1.592                  0.4480721       -39.41569
1.596                  0.5630601       -46.72257
1.6                    0.6654739       -53.76474
1.604                  0.7535397       -60.53945
1.608                  0.8261021       -67.01518
1.612                  0.8826887       -73.14557
1.616                  0.9235529        -78.8746
1.62                   0.9496886        -84.1401
1.624                   0.962812       -88.87778
1.628                  0.9653001       -93.02766
1.632                  0.9600702       -96.54405
1.636                  0.9503835       -99.40908
1.64                   0.9395614       -101.6481
1.644                  0.9306188       -103.3415
1.648                  0.9258706       -104.6257
1.652                   0.926603       -105.6769
1.656                  0.9329274       -106.6792
1.66                    0.943877       -107.7886
1.664                  0.9577182       -109.1072
1.668                  0.9723665       -110.6743
1.672                  0.9857909       -112.4731
1.676                  0.9963286       -114.4463
1.68                    1.002884       -116.5118
1.684                    1.00502       -118.5783
1.688                   1.002963       -120.5569
1.692                  0.9975225       -122.3716
1.696                  0.9899608       -123.9684
1.7                    0.9817934        -125.323
1.704                   0.974556       -126.4462
1.708                  0.9695558       -127.3834
1.712                  0.9676539       -128.2081
1.716                  0.9691267       -129.0078
1.72                   0.9736439       -129.8664
1.724                  0.9803649       -130.8488
1.728                  0.9881271       -131.9902
1.732                  0.9956712       -133.2939
1.736                   1.001857       -134.7346
1.74                    1.005833       -136.2662
1.744                   1.007144       -137.8306
1.748                   1.005775       -139.3669
1.752                   1.002127       -140.8198
1.756                  0.9969465       -142.1472
1.76                   0.9911969       -143.3265
1.764                  0.9859038       -144.3582
1.768                  0.9819843       -145.2666
1.772                  0.9800918       -146.0959
1.776                   0.980507        -146.902
1.78                   0.9831013       -147.7417
1.784                  0.9873758       -148.6621
1.788                  0.9925698       -149.6926
1.792                  0.9978065       -150.8411
1.796                   1.002247       -152.0948
1.8                     1.005224        -153.424
1.804                   1.006338       -154.7882
1.808                   1.005502       -156.1426
1.812                   1.002948       -157.4452
1.816                  0.9991755       -158.6625
1.82                   0.9948675       -159.7747
1.824                   0.990779       -160.7788
1.828                  0.9876082       -161.6898
1.832                  0.9858799       -162.5375
1.836                  0.9858574       -163.3618
1.84                   0.9875026       -164.2049
1.844                  0.9904933       -165.1035
1.848                  0.9942914       -166.0824
1.852                  0.9982452       -167.1509
1.856                   1.001705       -168.3026
1.86                    1.004129       -169.5171
1.864                   1.005166       -170.7649
1.868                   1.004703       -172.0115
1.872                   1.002873       -173.2236
1.876                   1.000027       -174.3736
1.88                   0.9966742       -175.4441
1.884                  0.9933951       -176.4306
1.888                  0.9907448       -177.3422
1.892                  0.9891595       -178.2002
1.896                  0.9888831       -179.0343
1.9                    0.9899299       -179.8772
1.904                  0.9920889        179.2415
1.908                  0.9949675        178.3004
1.912                   0.998067        177.2897
1.916                   1.000871        176.2119
1.92                    1.002929         175.081
1.924                   1.003933        173.9192
1.928                   1.003751        172.7533
1.932                   1.002454        171.6103
1.936                   1.000287        170.5131
1.94                   0.9976352        169.4776
1.944                  0.9949524        168.5091
1.948                  0.9926881        167.6026
1.952                  0.9912114        166.7429
1.956                  0.9907494        165.9075
1.96                   0.9913525        165.0709
1.964                    0.99289        164.2087
1.968                   0.995078        163.3024
1.972                  0.9975343        162.3419
1.976                  0.9998454        161.3269
1.98                    1.001636        160.2665
1.984                   1.002629        159.1771
1.988                   1.002686        158.0795
1.992                   1.001822        156.9956
1.996                   1.000204        155.9447
2                      0.9981141        154.9409
2.004                  0.9959057        153.9908
2.008                  0.9939424        153.0924
2.012                  0.9925385        152.2354
2.016                  0.9919078        151.4033
2.02                     0.99213        150.5763
2.024                   0.993141        149.7346
2.028                  0.9947482        148.8617
2.032                  0.9966674        147.9475
2.036                  0.9985733        146.9893
2.04                    1.000153        145.9919
2.044                   1.001159        144.9668
2.048                   1.001441        143.9293
2.052                    1.00097        142.8969
2.056                  0.9998363        141.8859
2.06                   0.9982343         140.909
2.064                  0.9964262        139.9739
2.068                  0.9947004        139.0814
2.072                  0.9933248         138.226
2.076                   0.992503        137.3964
2.08                   0.9923446        136.5779
2.084                  0.9928485        135.7546
2.088                  0.9939079        134.9122
2.092                  0.9953304        134.0402
2.096                  0.9968726        133.1334
2.1                    0.9982801        132.1926
2.104                  0.9993271         131.224
2.108                  0.9998508        130.2382
2.112                  0.9997727        129.2481
2.116                  0.9991082        128.2672
2.12                   0.9979616        127.3076
2.124                   0.996507        126.3779
2.128                  0.9949606        125.4823
2.132                  0.9935479        124.6199
2.136                  0.9924687        123.7849
2.14                   0.9918674        122.9678
2.144                  0.9918127        122.1562
2.148                  0.9922886        121.3378
2.152                  0.9931987        120.5014
2.156                  0.9943834        119.6387
2.16                   0.9956443        118.7461
2.164                  0.9967744        117.8241
2.168                  0.9975886        116.8778
2.172                  0.9979488        115.9157
2.176                  0.9977832        114.9486
2.18                   0.9970949        113.9877
2.184                  0.9959616        113.0438
2.188                  0.9945244         112.125
2.192                  0.9929682        111.2359
2.196                  0.9914964        110.3769
2.2                    0.9903021         109.544
2.204                  0.9895403         108.729
2.208                  0.9893039         107.921
2.212                  0.9896098        107.1075
2.216                  0.9903936        106.2764
2.22                   0.9915172        105.4178
2.224                  0.9927868        104.5254
2.228                  0.9939798        103.5974
2.232                  0.9948753        102.6371
2.236                  0.9952862        101.6522
2.24                   0.9950881         100.654
2.244                  0.9942391        99.65597
2.248                  0.9927903        98.67178
2.252                  0.9908841        97.71335
2.256                  0.9887384        96.78899
2.26                   0.9866181        95.90171
2.264                  0.9847986        95.04832
2.268                  0.9835226         94.2193
2.272                  0.9829581        93.39973
2.276                  0.9831671        92.57135
2.28                   0.9840859        91.71519
2.284                  0.9855284         90.8146
2.288                  0.9872067        89.85806
2.292                  0.9887713         88.8412
2.296                  0.9898622        87.76772
2.3                    0.9901652        86.64916
2.304                  0.9894633         85.5034
2.308                  0.9876779        84.35238
2.312                  0.9848906        83.21879
2.316                  0.9813434        82.12261
2.32                   0.9774132        81.07744
2.324                  0.9735622        80.08734
2.328                  0.9702671        79.14474
2.332                  0.9679378        78.23026
2.336                   0.966838        77.31442
2.34                   0.9670237        76.36171
2.344                  0.9683137        75.33627
2.348                  0.9702994        74.20783
2.352                  0.9723965        72.95685