! TOUCHSTONE file generated by CST MICROWAVE STUDIO
! Date and time: Tue Jun 14 14:31:18 2022
! Project name: AppElm_antenne_patch_FR4.cst
! Parameters = {L=45; W=58.5; e=0.035; h=1.6; lambda=0.190476; ls=132; w0=2.54; w1=0.847; ws=120; y0=18; y1=23.8}
! Header version: 2018
! Port assignment regex: !\s*Touchstone port\s*([0-9]+)\s*=\s*(CST MWS port|CST DS port)\s*([0-9]+|Zmin|Zmax)\s*\(\"(.*)\"\)(\s*mode\s*([0-9]+))?.*
! Touchstone port assignment:
! Touchstone port 1 = CST MWS port 1 ("")
# GHz S MA R 50
0                      0.9874882              -0
0.004                  0.9882281       -9.977742
0.008                  0.9903464       -19.86247
0.012                  0.9935534       -29.56601
0.016                   0.997417         -39.009
0.02                    1.001426        -48.1235
0.024                   1.005064       -56.85412
0.028                   1.007878       -65.15796
0.032                   1.009541       -73.00384
0.036                   1.009883       -80.37136
0.04                    1.008917       -87.25021
0.044                   1.006827       -93.63996
0.048                   1.003944       -99.55007
0.052                   1.000694            -105
0.056                  0.9975414       -110.0194
0.06                   0.9949227       -114.6467
0.064                  0.9931816       -118.9278
0.068                  0.9925222       -122.9128
0.072                  0.9929819        -126.652
0.076                  0.9944312        -130.192
0.08                   0.9966009        -133.572
0.084                  0.9991289       -136.8215
0.088                   1.001619        -139.959
0.092                   1.003702       -142.9928
0.096                   1.005088       -145.9226
0.1                     1.005608       -148.7422
0.104                   1.005226       -151.4421
0.108                   1.004049       -154.0132
0.112                   1.002294       -156.4494
0.116                   1.000262       -158.7495
0.12                   0.9982847        -160.919
0.124                  0.9966724         -162.97
0.128                  0.9956673       -164.9206
0.132                  0.9954058       -166.7924
0.136                  0.9959001       -168.6082
0.14                   0.9970404       -170.3889
0.144                  0.9986176       -172.1506
0.148                    1.00036       -173.9032
0.152                    1.00198       -175.6497
0.156                   1.003222       -177.3863
0.16                    1.003899        -179.104
0.164                   1.003921        179.2092
0.168                   1.003306        177.5662
0.172                   1.002175        175.9782
0.176                   1.000727        174.4527
0.18                    0.999209        172.9921
0.184                  0.9978731        171.5931
0.188                  0.9969355        170.2468
0.192                  0.9965409        168.9403
0.196                  0.9967404        167.6583
0.2                    0.9974848        166.3859
0.204                  0.9986356        165.1108
0.208                  0.9999897         163.825
0.212                   1.001316        162.5259
0.216                   1.002393        161.2164
0.22                    1.003048        159.9041
0.224                   1.003181        158.5995
0.228                   1.002779        157.3146
0.232                    1.00192        156.0605
0.236                   1.000756        154.8453
0.24                   0.9994882        153.6733
0.244                  0.9983305        152.5437
0.248                  0.9974769        151.4507
0.252                  0.9970666        150.3847
0.256                  0.9971619        149.3335
0.26                   0.9977375        148.2846
0.264                  0.9986876        147.2276
0.268                  0.9998441         146.155
0.272                   1.001007        145.0643
0.276                   1.001979        143.9575
0.28                    1.002597        142.8413
0.284                   1.002761         141.725
0.288                    1.00245        140.6196
0.292                    1.00172        139.5355
0.296                   1.000701         138.481
0.3                    0.9995692        137.4604
0.304                  0.9985187         136.474
0.308                  0.9977288        135.5172
0.312                  0.9973327        134.5819
0.316                  0.9973948        133.6574
0.32                   0.9978996        132.7323
0.324                  0.9987564         131.797
0.328                  0.9998139        130.8446
0.332                   1.000888        129.8724
0.336                   1.001795        128.8824
0.34                     1.00238        127.8804
0.344                   1.002544        126.8753
0.348                   1.002264        125.8774
0.352                   1.001588        124.8968
0.356                   1.000637        123.9415
0.36                   0.9995736        123.0159
0.364                   0.998584        122.1205
0.368                  0.9978381        121.2512
0.372                  0.9974651        120.4005
0.376                   0.997528        119.5583
0.38                   0.9980141        118.7138
0.384                  0.9988373        117.8577
0.388                  0.9998529        116.9836
0.392                   1.000884        116.0889
0.396                   1.001753        115.1753
0.4                     1.002308        114.2487
0.404                   1.002456        113.3178
0.408                   1.002172        112.3927
0.412                   1.001507        111.4832
0.416                   1.000575         110.597
0.42                   0.9995393        109.7387
0.424                  0.9985805        108.9086
0.428                   0.997866        108.1027
0.432                  0.9975208        107.3135
0.436                  0.9976054         106.531
0.44                   0.9981047        105.7448
0.444                  0.9989311        104.9456
0.448                  0.9999397        104.1273
0.452                   1.000954        103.2875
0.456                   1.001798        102.4282
0.46                    1.002322        101.5554
0.464                   1.002438         100.678
0.468                   1.002122        99.80596
0.472                    1.00143        98.94919
0.476                   1.000481        98.11536
0.48                   0.9994404        97.30877
0.484                  0.9984894        96.52949
0.488                  0.9977952        95.77328
0.492                  0.9974801        95.03234
0.496                  0.9976001        94.29656
0.5                    0.9981345        93.55541
0.504                    0.99899        92.79978
0.508                   1.000016         92.0236
0.512                   1.001031        91.22488
0.516                   1.001858        90.40605
0.52                    1.002351        89.57346
0.524                   1.002421         88.7363
0.528                   1.002054        87.90501
0.532                   1.001313        87.08946
0.536                   1.000324        86.29729
0.54                   0.9992605         85.5325
0.544                  0.9983084        84.79479
0.548                  0.9976358        84.07937
0.552                  0.9973626        83.37793
0.556                  0.9975388        82.67994
0.56                   0.9981348         81.9746
0.564                  0.9990467         81.2528
0.568                   1.000114        80.50868
0.572                   1.001149        79.74069
0.576                   1.001969        78.95186
0.58                    1.002428        78.14918
0.584                   1.002443        77.34242
0.588                   1.002009        76.54244
0.592                   1.001199        75.75932
0.596                   1.000153        75.00065
0.6                    0.9990524        74.27009
0.604                  0.9980921        73.56672
0.608                  0.9974423        72.88511
0.612                  0.9972204        72.21615
0.616                  0.9974682        71.54869
0.62                   0.9981439        70.87158
0.624                  0.9991299        70.17564
0.628                   1.000253        69.45529
0.632                   1.001314        68.70955
0.636                   1.002124        67.94222
0.64                     1.00254        67.16114
0.644                   1.002484        66.37683
0.648                   1.001961        65.60075
0.652                    1.00106        64.84325
0.656                  0.9999361         64.1118
0.66                   0.9987855        63.40965
0.664                  0.9978114        62.73512
0.668                  0.9971883        62.08182
0.672                  0.9970295        61.43972
0.676                  0.9973665        60.79686
0.68                   0.9981426        60.14164
0.684                  0.9992225        59.46475
0.688                   1.000416          58.761
0.692                   1.001512        58.03014
0.696                   1.002314        57.27688
0.7                     1.002679        56.51014
0.704                   1.002538        55.74136
0.708                    1.00191        54.98268
0.712                   1.000901        54.24479
0.716                  0.9996866        53.53501
0.72                   0.9984786        52.85603
0.724                  0.9974917        52.20524
0.728                  0.9969039        51.57511
0.732                  0.9968235        50.95445
0.736                  0.9972692         50.3304
0.74                   0.9981656        49.69075
0.744                  0.9993562        49.02619
0.748                   1.000631        48.33196
0.752                   1.001763        47.60871
0.756                    1.00255        46.86234
0.76                    1.002848        46.10295
0.764                     1.0026        45.34317
0.768                   1.001841        44.59589
0.772                     1.0007        43.87214
0.776                  0.9993735         43.1791
0.78                   0.9980944        42.51871
0.784                  0.9970902        41.88726
0.788                  0.9965422        41.27584
0.792                  0.9965522        40.67191
0.796                  0.9971236        40.06151
0.8                    0.9981582        39.43184
0.804                  0.9994748        38.77353
0.808                    1.00084        38.08243
0.812                   1.002011        37.36024
0.816                   1.002775        36.61425
0.82                    1.002993        35.85602
0.824                   1.002618        35.09942
0.828                   1.001708        34.35826
0.832                   1.000417        33.64392
0.836                  0.9989679         32.9633
0.84                   0.9976159        32.31748
0.844                   0.996603        31.70136
0.848                  0.9961137        31.10444
0.852                  0.9962414        30.51258
0.856                  0.9969697        29.91058
0.86                   0.9981743        29.28494
0.864                  0.9996442        28.62636
0.868                    1.00112         27.9314
0.872                   1.002337        27.20305
0.876                   1.003077        26.45022
0.88                    1.003202        25.68616
0.884                   1.002681        24.92621
0.888                   1.001598         24.1852
0.892                   1.000135        23.47487
0.896                  0.9985463        22.80179
0.9                    0.9971132        22.16597
0.904                  0.9960932        21.56072
0.908                  0.9956742        20.97364
0.912                  0.9959383        20.38877
0.916                  0.9968464        19.78949
0.92                   0.9982426        19.16159
0.924                   0.999882        18.49588
0.928                   1.001474         17.7898
0.932                   1.002733        17.04789
0.936                   1.003432        16.28097
0.94                    1.003436        15.50422
0.944                   1.002735        14.73468
0.948                    1.00144        13.98831
0.952                  0.9997701        13.27728
0.956                   0.998016        12.60767
0.96                   0.9964874        11.97824
0.964                  0.9954604        11.38039
0.968                  0.9951259        10.79946
0.972                  0.9955529        10.21738
0.976                  0.9966742        9.615875
0.98                   0.9982971        8.979927
0.984                   1.000137        8.300481
0.988                   1.001867        7.576078
0.992                   1.003178        6.813066
0.996                    1.00383        6.024463
1                       1.003697        5.227734
1.004                   1.002788        4.441861
1.008                   1.001252        3.684143
1.012                  0.9993471         2.96718
1.016                  0.9974063        2.296518
1.02                   0.9957743        1.669397
1.024                  0.9947478        1.074938
1.028                  0.9945204       0.4958722
1.032                  0.9951449     -0.08840972
1.036                  0.9965211      -0.6980655
1.04                   0.9984122       -1.349052
1.044                   1.000486       -2.050198
1.048                   1.002375       -2.801651
1.052                   1.003739       -3.594904
1.056                   1.004326       -4.414303
1.06                    1.004018       -5.239689
1.064                   1.002851       -6.049747
1.068                   1.001013       -6.825582
1.072                  0.9988145       -7.554024
1.076                  0.9966366       -8.230177
1.08                   0.9948667       -8.858499
1.084                  0.9938269       -9.452672
1.088                  0.9937152        -10.0331
1.092                  0.9945653       -10.62345
1.096                   0.996238       -11.24617
1.1                    0.9984439       -11.91837
1.104                   1.000795       -12.64865
1.108                   1.002871       -13.43563
1.112                   1.004298       -14.26826
1.116                   1.004809       -15.12768
1.12                    1.004293       -15.99058
1.124                   1.002816       -16.83274
1.128                   1.000618       -17.63334
1.132                  0.9980669       -18.37843
1.136                  0.9956074        -19.0638
1.14                   0.9936777       -19.69614
1.144                  0.9926329       -20.29236
1.148                  0.9926768       -20.87684
1.152                  0.9938208       -21.47704
1.156                  0.9958779       -22.11836
1.16                    0.998494       -22.81939
1.164                    1.00121       -23.58852
1.168                   1.003543       -24.42254
1.172                   1.005072       -25.30726
1.176                   1.005507       -26.22003
1.18                    1.004746       -27.13341
1.184                   1.002893       -28.01963
1.188                   1.000244       -28.85518
1.192                  0.9972446         -29.625
1.196                  0.9944158       -30.32554
1.2                    0.9922639       -30.96601
1.204                  0.9911884       -31.56742
1.208                  0.9914045       -32.15915
1.212                  0.9928983       -32.77355
1.216                  0.9954244       -33.43993
1.22                   0.9985476       -34.17892
1.224                   1.001719       -34.99882
1.228                   1.004372       -35.89425
1.232                   1.006022       -36.84716
1.236                    1.00635       -37.83001
1.24                    1.005259       -38.81011
1.244                   1.002894       -39.75485
1.248                  0.9996285       -40.63704
1.252                   0.996005       -41.43977
1.256                  0.9926495          -42.16
1.26                    0.990162       -42.81002
1.264                  0.9890071       -43.41621
1.268                  0.9894223       -44.01465
1.272                  0.9913664       -44.64455
1.276                  0.9945204       -45.34077
1.28                   0.9983414       -46.12716
1.284                   1.002158       -47.01231
1.288                   1.005288       -47.98827
1.292                   1.007155       -49.03212
1.296                   1.007389       -50.10981
1.3                     1.005891       -51.18154
1.304                   1.002857       -52.20783
1.308                  0.9987562       -53.15598
1.312                  0.9942635       -54.00585
1.316                  0.9901526       -54.75445
1.32                   0.9871621       -55.41786
1.324                  0.9858586       -56.02967
1.328                   0.986523       -56.63561
1.332                  0.9890856       -57.28501
1.336                  0.9931297       -58.02127
1.34                   0.9979612       -58.87353
1.344                   1.002731       -59.85144
1.348                   1.006581       -60.94398
1.352                   1.008791       -62.12163
1.356                   1.008901       -63.34121
1.36                    1.006792        -64.5524
1.364                   1.002717       -65.70517
1.368                   0.997276       -66.75755
1.372                  0.9913387       -67.68325
1.376                  0.9859075       -68.47779
1.38                   0.9819492       -69.16166
1.384                   0.980213         -69.779
1.388                  0.9810751       -70.39072
1.392                  0.9844487       -71.06305
1.396                   0.989783       -71.85437
1.4                    0.9961547        -72.8039
1.404                    1.00243       -73.92481
1.408                   1.007457       -75.20272
1.412                    1.01026        -76.5989
1.416                   1.010202       -78.05642
1.42                    1.007089       -79.50825
1.424                   1.001229       -80.88629
1.428                  0.9934095       -82.13146
1.432                  0.9848088       -83.20408
1.436                  0.9768297       -84.09357
1.44                   0.9708694       -84.82528
1.444                  0.9680557       -85.46065
1.448                   0.969004       -86.08892
1.452                  0.9736591       -86.81039
1.456                    0.98127       -87.71595
1.46                   0.9905097       -88.86883
1.464                  0.9997023       -90.29407
1.468                   1.007104       -91.97633
1.472                   1.011181       -93.86473
1.476                   1.010839       -95.88109
1.48                    1.005604       -97.92976
1.484                  0.9957253       -99.90844
1.488                  0.9822033       -101.7204
1.492                  0.9667269       -103.2898
1.496                  0.9514931       -104.5802
1.5                    0.9388953       -105.6135
1.504                   0.931086       -106.4822
1.508                  0.9294876       -107.3463
1.512                   0.934381       -108.4079
1.516                  0.9447173       -109.8702
1.52                   0.9582234       -111.8982
1.524                  0.9717437       -114.5944
1.528                  0.9816894       -117.9982
1.532                  0.9844643       -122.0978
1.536                  0.9768006       -126.8495
1.54                   0.9559875       -132.1943
1.544                  0.9200115       -138.0705
1.548                  0.8676301       -144.4235
1.552                  0.7983969        -151.213
1.556                  0.7126515       -158.4239
1.56                   0.6114861       -166.0859
1.564                  0.4967013       -174.3263
1.568                  0.3707893        176.4595
1.572                  0.2371529        164.8377
1.576                  0.1029733         141.499
1.58                  0.06998732        23.78712
1.584                  0.1991049        -12.4899
1.588                  0.3338914       -25.55937
1.592                   0.462169       -35.21783
1.596                  0.5801042       -43.68073
1.6                    0.6850101       -51.49819
1.604                  0.7749106       -58.84539
1.608                   0.848527        -65.7717
1.612                    0.90532       -72.27163
1.616                  0.9455276       -78.31076
1.62                   0.9701807        -83.8376
1.624                  0.9810885       -88.79166
1.628                  0.9807799       -93.11202
1.632                  0.9723853       -96.74902
1.636                  0.9594348       -99.68017
1.64                    0.945555       -101.9287
1.644                   0.934065       -103.5791
1.648                  0.9275252       -104.7806
1.652                  0.9273503         -105.73
1.656                  0.9336277       -106.6349
1.66                   0.9452231       -107.6713
1.664                   0.960141       -108.9526
1.668                  0.9760055       -110.5204
1.672                  0.9905195       -112.3531
1.676                   1.001815       -114.3844
1.68                    1.008667       -116.5219
1.684                    1.01059       -118.6633
1.688                   1.007832       -120.7096
1.692                   1.001299       -122.5756
1.696                  0.9924015       -124.1999
1.7                     0.982842       -125.5541
1.704                  0.9743543       -126.6487
1.708                  0.9684228        -127.534
1.712                  0.9660301       -128.2929
1.716                  0.9674944        -129.025
1.72                   0.9724398       -129.8262
1.724                  0.9799076       -130.7704
1.728                  0.9885724       -131.8974
1.732                  0.9970023       -133.2102
1.736                   1.003903       -134.6797
1.74                     1.00831       -136.2535
1.744                   1.009706       -137.8659
1.748                   1.008069       -139.4483
1.752                   1.003849       -140.9381
1.756                  0.9978855       -142.2874
1.76                   0.9912685       -143.4697
1.764                  0.9851644       -144.4848
1.768                  0.9806218       -145.3597
1.772                  0.9783921       -146.1444
1.776                   0.978802        -146.903
1.78                   0.9817085       -147.7007
1.784                  0.9865427       -148.5915
1.788                  0.9924341       -149.6092
1.792                  0.9983799       -150.7626
1.796                   1.003421       -152.0369
1.8                     1.006794       -153.3983
1.804                   1.008039       -154.8004
1.808                   1.007055       -156.1926
1.812                     1.0041       -157.5267
1.816                  0.9997411       -158.7641
1.82                   0.9947583       -159.8817
1.824                  0.9900164       -160.8757
1.828                  0.9863212       -161.7625
1.832                  0.9842817       -162.5763
1.836                   0.984207        -163.363
1.84                   0.9860582       -164.1714
1.844                  0.9894674       -165.0441
1.848                  0.9938148       -166.0098
1.852                  0.9983489       -167.0794
1.856                    1.00232       -168.2455
1.86                      1.0051       -169.4848
1.864                   1.006284       -170.7631
1.868                   1.005736       -172.0408
1.872                   1.003605       -173.2796
1.876                   1.000293       -174.4474
1.88                   0.9963878       -175.5237
1.884                  0.9925605       -176.5029
1.888                  0.9894581       -177.3951
1.892                  0.9875914       -178.2249
1.896                  0.9872493       -179.0269
1.9                    0.9884526       -179.8394
1.904                  0.9909574        179.3031
1.908                  0.9943074        178.3753
1.912                  0.9979201        177.3656
1.916                   1.001191        176.2771
1.92                    1.003595        175.1259
1.924                   1.004766         173.938
1.928                   1.004552        172.7446
1.932                   1.003028        171.5772
1.936                   1.000481         170.463
1.94                     0.99736        169.4205
1.944                  0.9941982        168.4565
1.948                  0.9915261        167.5653
1.952                  0.9897815        166.7291
1.956                   0.989236        165.9214
1.96                   0.9899515        165.1119
1.964                  0.9917746        164.2716
1.968                  0.9943698        163.3785
1.972                  0.9972829        162.4204
1.976                   1.000022        161.3972
1.98                    1.002142        160.3197
1.984                   1.003311        159.2073
1.988                   1.003364        158.0848
1.992                    1.00232        156.9782
1.996                   1.000376        155.9108
2                      0.9978685        154.8994
2.004                  0.9952223         153.952
2.008                  0.9928746        153.0662
2.012                  0.9912048        152.2298
2.016                  0.9904711        151.4228
2.02                   0.9907695        150.6212
2.024                  0.9920207        149.8007
2.028                  0.9939898        148.9416
2.032                  0.9963292        148.0316
2.036                  0.9986427        147.0677
2.04                    1.000551        146.0561
2.044                   1.001751        145.0105
2.048                   1.002065        143.9503
2.052                    1.00146        142.8965
2.056                   1.000051        141.8691
2.06                   0.9980789        140.8838
2.064                  0.9958703        139.9495
2.068                  0.9937818        139.0674
2.072                  0.9921432          138.23
2.076                  0.9912044        137.4234
2.08                   0.9910949        136.6288
2.084                  0.9918061        135.8263
2.088                  0.9931958        134.9983
2.092                  0.9950165        134.1319
2.096                  0.9969583        133.2214
2.1                    0.9987014        132.2682
2.104                  0.9999667         131.281
2.108                   1.000558        130.2734
2.112                   1.000388        129.2622
2.116                  0.9994893        128.2644
2.12                   0.9980077        127.2947
2.124                  0.9961745        126.3638
2.128                  0.9942708         125.476
2.132                   0.992584        124.6295
2.136                  0.9913618        123.8157
2.14                   0.9907744        123.0216
2.144                  0.9908901        122.2312
2.148                  0.9916659        121.4284
2.152                  0.9929566        120.5995
2.156                  0.9945403        119.7355
2.16                   0.9961547        118.8326
2.164                  0.9975366        117.8937
2.168                  0.9984622        116.9265
2.172                   0.998778         115.943
2.176                  0.9984224        114.9577
2.18                   0.9974326         113.985
2.184                  0.9959383        113.0374
2.188                   0.994143        112.1239
2.192                   0.992294        111.2484
2.196                  0.9906476        110.4093
2.2                      0.98943        109.5992
2.204                  0.9888046        108.8063
2.208                  0.9888466        108.0159
2.212                  0.9895309        107.2127
2.216                  0.9907345        106.3828
2.22                   0.9922543        105.5162
2.224                  0.9938354        104.6079
2.228                  0.9952079        103.6588
2.232                   0.996126        102.6756
2.236                  0.9964025        101.6696
2.24                   0.9959382        100.6557
2.244                  0.9947377        99.64977
2.248                   0.992913        98.66687
2.252                  0.9906719         97.7189
2.256                  0.9882928        96.81264
2.26                    0.986086        95.94827
2.264                  0.9843494        95.11889
2.268                   0.983321        94.31096
2.272                   0.983137        93.50591
2.276                  0.9838047        92.68286
2.28                    0.985193        91.82177
2.284                  0.9870455        90.90656
2.288                  0.9890139        89.92797
2.292                  0.9907068          88.885
2.296                  0.9917487        87.78537
2.3                    0.9918376        86.64456
2.304                  0.9907949        85.48398
2.308                  0.9886011        84.32787
2.312                  0.9854102        83.19998
2.316                  0.9815389         82.1197
2.32                   0.9774309         81.0984
2.324                  0.9735957        80.13646
2.328                  0.9705299        79.22163
2.332                  0.9686302        78.32944
2.336                  0.9681147        77.42594
2.34                   0.9689668        76.47269
2.344                  0.9709183        75.43281
2.348                  0.9734727        74.27731
2.352                  0.9759723        72.98981