! TOUCHSTONE file generated by CST MICROWAVE STUDIO
! Date and time: Tue Jun 14 14:31:14 2022
! Project name: AppElm_antenne_patch_FR4.cst
! Parameters = {L=45; W=58.5; e=0.035; h=1.6; lambda=0.190476; ls=108; w0=2.54; w1=0.847; ws=120; y0=18; y1=23.8}
! Header version: 2018
! Port assignment regex: !\s*Touchstone port\s*([0-9]+)\s*=\s*(CST MWS port|CST DS port)\s*([0-9]+|Zmin|Zmax)\s*\(\"(.*)\"\)(\s*mode\s*([0-9]+))?.*
! Touchstone port assignment:
! Touchstone port 1 = CST MWS port 1 ("")
# GHz S MA R 50
0                      0.9874564              -0
0.004                  0.9881973       -9.976416
0.008                  0.9903185       -19.85988
0.012                  0.9935306       -29.56226
0.016                  0.9974011       -39.00423
0.02                    1.001419       -48.11792
0.024                   1.005067       -56.84797
0.028                   1.007892       -65.15149
0.032                   1.009565       -72.99729
0.036                   1.009918       -80.36499
0.04                     1.00896       -87.24428
0.044                   1.006875       -93.63466
0.048                   1.003993       -99.54554
0.052                    1.00074       -104.9963
0.056                    0.99758       -110.0164
0.06                   0.9949498       -114.6444
0.064                  0.9931944       -118.9259
0.068                  0.9925196        -122.911
0.072                  0.9929645         -126.65
0.076                  0.9944019       -130.1895
0.08                   0.9965641       -133.5689
0.084                  0.9990897       -136.8176
0.088                   1.001584       -139.9543
0.092                   1.003676       -142.9875
0.096                   1.005076       -145.9169
0.1                     1.005611       -148.7364
0.104                   1.005247       -151.4366
0.108                   1.004083       -154.0084
0.112                   1.002338       -156.4455
0.116                    1.00031       -158.7467
0.12                   0.9983299       -160.9173
0.124                  0.9967084       -162.9693
0.128                  0.9956885       -164.9206
0.132                   0.995409       -166.7927
0.136                  0.9958847       -168.6085
0.14                   0.9970089       -170.3887
0.144                  0.9985744       -172.1497
0.148                   1.000312       -173.9014
0.152                   1.001935       -175.6469
0.156                   1.003186       -177.3825
0.16                    1.003878       -179.0997
0.164                   1.003919        179.2137
0.168                   1.003323        177.5705
0.172                   1.002208        175.9818
0.176                   1.000772        174.4553
0.18                   0.9992582        172.9936
0.184                  0.9979183        171.5933
0.188                   0.996969         170.246
0.192                  0.9965566        168.9387
0.196                   0.996735        167.6565
0.2                    0.9974585        166.3843
0.204                  0.9985918        165.1099
0.208                  0.9999347        163.8252
0.212                   1.001258        162.5273
0.216                   1.002342         161.219
0.22                    1.003011        159.9077
0.224                   1.003163        158.6037
0.228                   1.002784        157.3189
0.232                   1.001948        156.0643
0.236                   1.000802        154.8483
0.24                   0.9995439         153.675
0.244                  0.9983875         152.544
0.248                  0.9975258        151.4497
0.252                  0.9970988        150.3826
0.256                  0.9971719        149.3308
0.26                   0.9977235         148.282
0.264                  0.9986516        147.2255
0.268                  0.9997922         146.154
0.272                   1.000948        145.0646
0.276                   1.001922        143.9592
0.28                    1.002553        142.8442
0.284                   1.002738        141.7288
0.288                   1.002452        140.6237
0.292                   1.001748        139.5393
0.296                   1.000752        138.4839
0.3                    0.9996348         137.462
0.304                  0.9985891         136.474
0.308                  0.9977928        135.5157
0.312                    0.99738         134.579
0.316                  0.9974175        133.6536
0.32                   0.9978945        132.7284
0.324                  0.9987241        131.7935
0.328                  0.9997599        130.8422
0.332                   1.000822        129.8715
0.336                   1.001728        128.8831
0.34                    1.002324        127.8826
0.344                    1.00251        126.8787
0.348                   1.002257        125.8814
0.352                   1.001611        124.9006
0.356                   1.000687        123.9445
0.36                   0.9996432        123.0175
0.364                  0.9986614        122.1204
0.368                   0.997911        121.2493
0.372                  0.9975211         120.397
0.376                  0.9975575        119.5537
0.38                   0.9980121        118.7089
0.384                  0.9988036        117.8533
0.388                  0.9997934        116.9803
0.392                   1.000809        116.0872
0.396                   1.001674        115.1756
0.4                     1.002241        114.2508
0.404                   1.002412        113.3213
0.408                    1.00216         112.397
0.412                   1.001529        111.4874
0.416                   1.000629        110.6004
0.42                   0.9996171        109.7407
0.424                  0.9986699        108.9086
0.428                  0.9979523        108.1006
0.432                  0.9975897        107.3095
0.436                  0.9976452        106.5258
0.44                   0.9981089        105.7391
0.444                  0.9988989        104.9403
0.448                  0.9998771        104.1232
0.452                   1.000872        103.2852
0.456                   1.001711        102.4281
0.46                    1.002247        101.5574
0.464                   1.002387        100.6816
0.468                   1.002106        99.81058
0.472                   1.001454        98.95388
0.476                   1.000542         98.1192
0.48                   0.9995291        97.31096
0.484                  0.9985923        96.52949
0.488                  0.9978956        95.77094
0.492                  0.9975614        95.02789
0.496                  0.9976491        94.29063
0.5                    0.9981431         93.5489
0.504                  0.9989568        92.79369
0.508                  0.9999473        92.01886
0.512                    1.00094        91.22224
0.516                   1.001761        90.40585
0.52                    1.002266        89.57569
0.524                   1.002364        88.74049
0.528                   1.002038        87.91035
0.532                   1.001342        87.09493
0.536                   1.000396        86.30183
0.54                   0.9993651        85.53521
0.544                  0.9984301        84.79501
0.548                  0.9977555        84.07693
0.552                  0.9974616        83.37308
0.556                  0.9976015        82.67338
0.56                   0.9981519        81.96736
0.564                   0.999017        81.24603
0.568                   1.000045        80.50343
0.572                   1.001054        79.73782
0.576                   1.001867        78.95178
0.58                    1.002341        78.15183
0.584                   1.002389        77.34726
0.588                   1.002001        76.54856
0.592                   1.001243        75.76555
0.596                   1.000246        75.00579
0.6                    0.9991827        74.27307
0.604                  0.9982415        73.56687
0.608                  0.9975892        72.88217
0.612                   0.997343        72.21046
0.616                   0.997549        71.54108
0.62                   0.9981727        70.86319
0.624                  0.9991054         70.1678
0.628                   1.000183        69.44921
0.632                   1.001216        68.70617
0.636                    1.00202          67.942
0.64                    1.002452        67.16399
0.644                   1.002434        66.38215
0.648                   1.001964        65.60747
0.652                   1.001122        64.85003
0.656                   1.000053        64.11729
0.66                   0.9989441        63.41265
0.664                  0.9979907        62.73485
0.668                  0.9973633        62.07805
0.672                  0.9971756        61.43286
0.676                  0.9974643        60.78787
0.68                   0.9981809        60.13185
0.684                  0.9992004        59.45567
0.688                   1.000344          58.754
0.692                   1.001409        58.02626
0.696                   1.002206        57.27662
0.7                     1.002592        56.51335
0.704                   1.002495         55.7473
0.708                   1.001929        54.99012
0.712                   1.000988        54.25218
0.716                  0.9998353         53.5408
0.72                   0.9986734        52.85888
0.724                  0.9977083         52.2043
0.728                  0.9971139        51.57018
0.732                   0.996999        50.94603
0.736                  0.9973885        50.31961
0.74                   0.9982168        49.67915
0.744                  0.9993394        49.01549
0.748                   1.000559        48.32371
0.752                   1.001658        47.60405
0.756                   1.002441        46.86175
0.76                    1.002766        46.10624
0.764                    1.00257        45.34943
0.768                   1.001882        44.60367
0.772                   1.000818        43.87968
0.776                  0.9995614         43.1846
0.78                   0.9983327         42.5207
0.784                  0.9973501        41.88483
0.788                  0.9967909        41.26883
0.792                  0.9967587        40.66096
0.796                  0.9972633        40.04797
0.8                     0.998219        39.41751
0.804                   0.999458        38.76037
0.808                   1.000761        38.07219
0.812                   1.001896        37.35416
0.816                   1.002659        36.61282
0.82                     1.00291        35.85891
0.824                   1.002597        35.10554
0.828                   1.001769        34.36591
0.832                   1.000565        33.65106
0.836                   0.999193        32.96791
0.84                   0.9978948        32.31792
0.844                  0.9969022        31.69665
0.848                  0.9963954        31.09451
0.852                  0.9964703        30.49825
0.856                  0.9971194        29.89347
0.86                    0.998232        29.26717
0.864                  0.9996135        28.61016
0.868                    1.00102        27.91873
0.872                     1.0022        27.19524
0.876                   1.002941        26.44776
0.88                    1.003107        25.68858
0.884                    1.00266        24.93216
0.888                   1.001671        24.19266
0.892                   1.000307         23.4815
0.896                  0.9988043        22.80528
0.9                    0.9974287         22.1645
0.904                  0.9964267        21.55327
0.908                  0.9959821        20.96023
0.912                  0.9961808        20.37047
0.916                  0.9969946        19.76824
0.92                   0.9982835        19.13988
0.924                  0.9998219        18.47626
0.928                   1.001337        17.77446
0.932                   1.002557        17.03828
0.936                   1.003262        16.27752
0.94                    1.003317        15.50627
0.944                   1.002703        14.74058
0.948                   1.001518        13.99569
0.952                  0.9999608        13.28339
0.956                  0.9983019        12.60991
0.96                   0.9968342        11.97458
0.964                  0.9958214        11.36977
0.968                  0.9954505        10.78206
0.972                   0.995796        10.19456
0.976                  0.9968041        9.590004
0.98                   0.9983016        8.953915
0.984                   1.000025        8.277281
0.988                    1.00167        7.558159
0.992                    1.00294        6.801979
0.996                   1.003605        6.020575
1                       1.003535        5.230156
1.004                   1.002732        4.448577
1.008                   1.001324        3.692319
1.012                  0.9995498        2.973627
1.016                  0.9977169        2.298237
1.02                   0.9961507        1.664123
1.024                  0.9951349        1.061585
1.028                  0.9948597       0.4747764
1.032                   0.995385      -0.1155107
1.036                  0.9966272      -0.7283305
1.04                   0.9983728       -1.379048
1.044                   1.000315       -2.076519
1.048                    1.00211       -2.821523
1.052                   1.003434       -3.606667
1.056                   1.004044       -4.417696
1.06                    1.003818       -5.235912
1.064                    1.00278       -6.041289
1.068                   1.001095       -6.815843
1.072                  0.9990486       -7.546766
1.076                  0.9969941       -8.228866
1.08                   0.9952955       -8.865712
1.084                  0.9942612       -9.469582
1.088                  0.9940857       -10.05908
1.092                  0.9948127       -10.65631
1.096                  0.9963233       -11.28245
1.1                    0.9983563       -11.95394
1.104                   1.000553       -12.67958
1.108                   1.002523       -13.45871
1.112                   1.003908       -14.28164
1.116                   1.004451       -15.13126
1.12                    1.004036       -15.98588
1.124                   1.002714       -16.82285
1.128                   1.000697        -17.6223
1.132                  0.9983232       -18.37071
1.136                  0.9960038       -19.06347
1.14                   0.9941508       -19.70612
1.144                  0.9931028       -20.31382
1.148                  0.9930617       -20.90891
1.152                  0.9940515        -21.5169
1.156                  0.9959107       -22.16175
1.16                   0.9983192       -22.86137
1.164                   1.000854       -23.62438
1.168                   1.003065       -24.44858
1.172                   1.004551       -25.32147
1.176                   1.005033        -26.2224
1.18                    1.004402       -27.12597
1.184                    1.00274       -28.00617
1.188                   1.000313       -28.84071
1.192                  0.9975274       -29.61492
1.196                  0.9948652       -30.32474
1.2                    0.9928011       -30.97795
1.204                  0.9917154        -31.5934
1.208                  0.9918216       -32.19795
1.212                  0.9931226       -32.82161
1.216                  0.9954048       -33.49195
1.22                    0.998275       -34.22885
1.224                   1.001228       -35.04097
1.228                   1.003736       -35.92423
1.232                    1.00534       -36.86268
1.236                   1.005731       -37.83119
1.24                    1.004802       -38.79955
1.244                   1.002675       -39.73729
1.248                  0.9996821       -40.61868
1.252                  0.9963179       -41.42728
1.256                   0.993161       -42.15939
1.26                   0.9907723       -42.82549
1.264                  0.9895932       -43.44921
1.268                  0.9898598        -44.0635
1.272                  0.9915526        -44.7046
1.276                  0.9943936       -45.40525
1.28                   0.9978926       -46.18843
1.284                   1.001433       -47.06324
1.288                   1.004381       -48.02344
1.292                   1.006192        -49.0487
1.296                   1.006509       -50.10806
1.3                     1.005219       -51.16479
1.304                   1.002489       -52.18209
1.308                   0.998735       -53.12912
1.312                  0.9945737       -53.98642
1.316                  0.9907165        -54.7502
1.32                   0.9878512       -55.43425
1.324                  0.9865142       -56.06862
1.328                  0.9869841       -56.69492
1.332                  0.9892189       -57.35862
1.336                  0.9928552       -58.10035
1.34                   0.9972677       -58.94815
1.344                   1.001678       -59.91235
1.348                   1.005291        -60.9842
1.352                    1.00743        -62.1375
1.356                   1.007648       -63.33304
1.36                    1.005816       -64.52451
1.364                   1.002143       -65.66541
1.368                  0.9971656       -66.71638
1.372                  0.9916723       -67.65221
1.376                  0.9865825       -68.46756
1.38                   0.9827913          -69.18
1.384                  0.9810034       -69.82887
1.388                  0.9815886       -70.46931
1.392                  0.9844958       -71.16203
1.396                  0.9892459       -71.96146
1.4                    0.9950102        -72.9052
1.404                   1.000754       -74.00728
1.408                   1.005413       -75.25632
1.412                   1.008075       -76.61812
1.416                   1.008127       -78.04104
1.42                    1.005365       -79.46355
1.424                   1.000044        -80.8227
1.428                  0.9928641       -82.06339
1.432                  0.9848915       -83.14821
1.436                  0.9774055       -84.06611
1.44                   0.9716902       -84.83872
1.444                  0.9687957       -85.52059
1.448                   0.969315       -86.19208
1.452                  0.9732353       -86.94466
1.456                  0.9799081        -87.8625
1.46                   0.9881468       -89.00591
1.464                  0.9964292       -90.40084
1.468                   1.003151       -92.03615
1.472                   1.006881        -93.8673
1.476                   1.006586       -95.82366
1.48                    1.001794       -97.81774
1.484                  0.9926962       -99.75539
1.488                  0.9801778       -101.5476
1.492                  0.9657559       -103.1245
1.496                  0.9514148       -104.4525
1.5                    0.9393209       -105.5505
1.504                  0.9314304        -106.501
1.508                    0.92905       -107.4471
1.512                   0.932464       -108.5713
1.516                   0.940753       -110.0603
1.52                   0.9518672       -112.0687
1.524                  0.9629174       -114.6974
1.528                  0.9705738       -117.9886
1.532                  0.9714592       -121.9363
1.536                  0.9624705       -126.5016
1.54                   0.9410044       -131.6278
1.544                  0.9051023       -137.2519
1.548                  0.8535278       -143.3127
1.552                  0.7857963       -149.7563
1.556                   0.702168       -156.5408
1.56                   0.6036134       -163.6449
1.564                  0.4917534        -171.087
1.568                  0.3687888       -178.9885
1.572                  0.2374459        172.1411
1.576                  0.1012878        158.7765
1.58                  0.04387025        6.610924
1.584                  0.1792384        -19.6339
1.588                  0.3130406       -29.47529
1.592                  0.4397537       -37.68509
1.596                   0.556419       -45.30457
1.6                    0.6606298       -52.55561
1.604                  0.7505318       -59.48798
1.608                  0.8248925       -66.09392
1.612                  0.8831649       -72.33933
1.616                  0.9255306       -78.17531
1.62                   0.9529183       -83.54373
1.624                  0.9669883       -88.38236
1.628                  0.9700762       -92.63155
1.632                  0.9650788       -96.24411
1.636                  0.9552645       -99.19885
1.64                   0.9439973       -101.5162
1.644                  0.9343733       -103.2713
1.648                  0.9288208       -104.5962
1.652                  0.9287546       -105.6661
1.656                  0.9344047       -106.6677
1.66                   0.9448876       -107.7634
1.664                  0.9585051       -109.0623
1.668                  0.9731606       -110.6106
1.672                   0.986775       -112.3965
1.676                  0.9976163       -114.3652
1.68                    1.004512       -116.4359
1.684                   1.006951       -118.5165
1.688                   1.005097       -120.5166
1.692                  0.9997167       -122.3575
1.696                  0.9920488       -123.9819
1.7                    0.9836147       -125.3617
1.704                  0.9759807       -126.5038
1.708                  0.9705086        -127.451
1.712                  0.9681271       -128.2751
1.716                  0.9691816       -129.0643
1.72                   0.9733982       -129.9051
1.724                  0.9799697        -130.866
1.728                  0.9877389       -131.9861
1.732                  0.9954274       -133.2721
1.736                   1.001856       -134.7011
1.74                    1.006125       -136.2282
1.744                   1.007726       -137.7953
1.748                   1.006595       -139.3407
1.752                   1.003096       -140.8073
1.756                  0.9979525       -142.1509
1.76                   0.9921236        -143.346
1.764                  0.9866501       -144.3906
1.768                  0.9824802       -145.3067
1.772                   0.980312       -146.1371
1.776                   0.980474       -146.9378
1.78                   0.9828799       -147.7669
1.784                  0.9870602       -148.6736
1.788                  0.9922658       -149.6899
1.792                  0.9976128       -150.8262
1.796                    1.00224       -152.0716
1.8                     1.005445       -153.3976
1.804                    1.00679       -154.7641
1.808                    1.00615        -156.126
1.812                   1.003726         -157.44
1.816                  0.9999944       -158.6709
1.82                   0.9956328       -159.7967
1.824                  0.9914033       -160.8125
1.828                  0.9880276       -161.7311
1.832                  0.9860634       -162.5813
1.836                  0.9858121       -163.4028
1.84                   0.9872719       -164.2383
1.844                  0.9901481        -165.126
1.848                  0.9939169       -166.0929
1.852                  0.9979258       -167.1503
1.856                    1.00151       -168.2936
1.86                    1.004104       -169.5037
1.864                   1.005324       -170.7514
1.868                   1.005025       -172.0024
1.872                   1.003311       -173.2223
1.876                   1.000513       -174.3823
1.88                   0.9971324       -175.4634
1.884                   0.993752        -176.459
1.888                  0.9909437       -177.3767
1.892                  0.9891694       -178.2368
1.896                  0.9887048       -179.0685
1.9                    0.9895953       -179.9049
1.904                  0.9916549        179.2233
1.908                  0.9945062         178.293
1.912                   0.997653        177.2925
1.916                   1.000568        176.2229
1.92                    1.002784        175.0968
1.924                   1.003961        173.9358
1.928                   1.003943        172.7668
1.932                   1.002772        171.6172
1.936                   1.000673        170.5112
1.94                   0.9980213        169.4659
1.944                  0.9952704        168.4885
1.948                  0.9928816        167.5753
1.952                  0.9912453        166.7124
1.956                  0.9906159        165.8778
1.96                   0.9910721        165.0457
1.964                  0.9925071         164.191
1.968                  0.9946538        163.2937
1.972                  0.9971351        162.3423
1.976                  0.9995313        161.3348
1.98                    1.001452        160.2792
1.984                   1.002596        159.1912
1.988                     1.0028        158.0912
1.992                   1.002053        157.0017
1.996                   1.000503         155.943
2                      0.9984185        154.9303
2.004                   0.996152        153.9719
2.008                  0.9940756        153.0669
2.012                  0.9925219        152.2065
2.016                  0.9917291        151.3747
2.02                   0.9918036        150.5517
2.024                  0.9927051        149.7169
2.028                  0.9942588        148.8528
2.032                   0.996188        147.9478
2.036                  0.9981646        146.9976
2.04                   0.9998632         146.006
2.044                   1.001015        144.9833
2.048                   1.001445        143.9447
2.052                     1.0011        142.9079
2.056                   1.000049          141.89
2.06                   0.9984734         140.905
2.064                  0.9966303        139.9617
2.068                   0.994814        139.0625
2.072                  0.9933076        138.2031
2.076                  0.9923375        137.3729
2.08                   0.9920379        136.5574
2.084                  0.9924325        135.7402
2.088                  0.9934332        134.9059
2.092                  0.9948575        134.0426
2.096                  0.9964615        133.1437
2.1                    0.9979805        132.2087
2.104                  0.9991697        131.2429
2.108                  0.9998429        130.2564
2.112                  0.9998965        129.2622
2.116                  0.9993241        128.2745
2.12                   0.9982138        127.3065
2.124                  0.9967331        126.3682
2.128                  0.9951019        125.4652
2.132                  0.9935593         124.598
2.136                  0.9923257        123.7616
2.14                   0.9915713        122.9466
2.144                  0.9913902        122.1407
2.148                  0.9917875        121.3303
2.152                    0.99268        120.5029
2.156                  0.9939104        119.6491
2.16                   0.9952722        118.7634
2.164                  0.9965419        117.8454
2.168                  0.9975103        116.8995
2.172                  0.9980138        115.9344
2.176                  0.9979561         114.961
2.18                   0.9973225        113.9921
2.184                  0.9961809        113.0395
2.188                  0.9946733        112.1129
2.192                  0.9929961        111.2183
2.196                  0.9913728        110.3571
2.2                    0.9900225        109.5258
2.204                  0.9891268        108.7161
2.208                   0.988803        107.9162
2.212                  0.9890839        107.1122
2.216                  0.9899109        106.2907
2.22                   0.9911402        105.4399
2.224                  0.9925615        104.5522
2.228                  0.9939277        103.6252
2.232                  0.9949899        102.6619
2.236                  0.9955338        101.6703
2.24                   0.9954123         100.663
2.244                  0.9945705        99.65474
2.248                  0.9930571        98.66093
2.252                  0.9910237        97.69507
2.256                   0.988708         96.7668
2.26                   0.9864023        95.87984
2.264                  0.9844128        95.03112
2.268                  0.9830106        94.21048
2.272                  0.9823865        93.40171
2.276                   0.982613        92.58477
2.28                   0.9836252        91.73878
2.284                  0.9852219        90.84545
2.288                  0.9870903        89.89206
2.292                  0.9888496         88.8738
2.296                   0.990108        87.79469
2.3                    0.9905238        86.66721
2.304                  0.9898612        85.51088
2.308                  0.9880348        84.34938
2.312                  0.9851329        83.20734
2.316                  0.9814168        82.10641
2.32                   0.9772938        81.06132
2.324                  0.9732618        80.07656
2.328                  0.9698347        79.14414
2.332                  0.9674536        78.24325
2.336                  0.9664019        77.34228
2.34                   0.9667398        76.40331
2.344                  0.9682727        75.38803
2.348                  0.9705646        74.26433
2.352                   0.972993        73.01164