! TOUCHSTONE file generated by CST MICROWAVE STUDIO
! Date and time: Tue Jun 14 14:31:17 2022
! Project name: AppElm_antenne_patch_FR4.cst
! Parameters = {L=45; W=58.5; e=0.035; h=1.6; lambda=0.190476; ls=126; w0=2.54; w1=0.847; ws=120; y0=18; y1=23.8}
! Header version: 2018
! Port assignment regex: !\s*Touchstone port\s*([0-9]+)\s*=\s*(CST MWS port|CST DS port)\s*([0-9]+|Zmin|Zmax)\s*\(\"(.*)\"\)(\s*mode\s*([0-9]+))?.*
! Touchstone port assignment:
! Touchstone port 1 = CST MWS port 1 ("")
# GHz S MA R 50
0                      0.9875177              -0
0.004                  0.9882566       -9.978187
0.008                  0.9903719       -19.86333
0.012                  0.9935744       -29.56723
0.016                  0.9974319       -39.01048
0.02                    1.001434       -48.12515
0.024                   1.005063       -56.85581
0.028                    1.00787       -65.15955
0.032                   1.009525        -73.0052
0.036                   1.009861       -80.37235
0.04                    1.008892       -87.25076
0.044                   1.006801          -93.64
0.048                    1.00392       -99.54958
0.052                   1.000675       -104.9991
0.056                  0.9975308       -110.0181
0.06                   0.9949215       -114.6452
0.064                  0.9931906       -118.9264
0.068                  0.9925404       -122.9116
0.072                  0.9930073       -126.6513
0.076                  0.9944605       -130.1919
0.08                   0.9966299       -133.5725
0.084                  0.9991537       -136.8225
0.088                   1.001636       -139.9605
0.092                   1.003709       -142.9945
0.096                   1.005085       -145.9244
0.1                     1.005593       -148.7437
0.104                   1.005204       -151.4432
0.108                   1.004021       -154.0138
0.112                   1.002266       -156.4493
0.116                   1.000238       -158.7488
0.12                   0.9982689       -160.9178
0.124                  0.9966672       -162.9685
0.128                  0.9956735       -164.9191
0.132                  0.9954225       -166.7911
0.136                  0.9959248       -168.6075
0.14                   0.9970691       -170.3887
0.144                  0.9986455       -172.1511
0.148                   1.000383       -173.9044
0.152                   1.001994       -175.6513
0.156                   1.003225        -177.388
0.16                     1.00389       -179.1057
0.164                   1.003901        179.2079
0.168                    1.00328        177.5654
0.172                   1.002146        175.9781
0.176                     1.0007        174.4532
0.18                    0.999189        172.9932
0.184                  0.9978631        171.5946
0.188                  0.9969372        170.2484
0.192                  0.9965539        168.9417
0.196                  0.9967624        167.6592
0.2                     0.997512        166.3862
0.204                  0.9986629        165.1104
0.208                   1.000013         163.824
0.212                    1.00133        162.5245
0.216                   1.002396        161.2148
0.22                    1.003039        159.9025
0.224                   1.003161        158.5983
0.228                   1.002752        157.3139
0.232                    1.00189        156.0604
0.236                   1.000729         154.846
0.24                   0.9994676        153.6746
0.244                  0.9983202        152.5453
0.248                  0.9974789        151.4525
0.252                  0.9970804        150.3862
0.256                   0.997185        149.3345
0.26                   0.9977661        148.2851
0.264                  0.9987166        147.2274
0.268                  0.9998685        146.1541
0.272                   1.001023        145.0629
0.276                   1.001983         143.956
0.28                    1.002589        142.8398
0.284                   1.002743        141.7239
0.288                   1.002424         140.619
0.292                   1.001692        139.5356
0.296                   1.000675        138.4817
0.3                    0.9995508        137.4617
0.304                   0.998511        136.4757
0.308                  0.9977335         135.519
0.312                  0.9973491        134.5834
0.316                  0.9974201        133.6584
0.32                   0.9979297        132.7327
0.324                   0.998786        131.7966
0.328                   0.999838        130.8436
0.332                   1.000903         129.871
0.336                   1.001798        128.8808
0.34                     1.00237        127.8788
0.344                   1.002524        126.8741
0.348                   1.002236        125.8769
0.352                   1.001559         124.897
0.356                   1.000611        123.9423
0.36                   0.9995557        123.0173
0.364                  0.9985771        122.1222
0.368                   0.997844         121.253
0.372                  0.9974823         120.402
0.376                  0.9975539        119.5592
0.38                    0.998044        118.7141
0.384                  0.9988658        117.8573
0.388                  0.9998752        116.9826
0.392                   1.000896        116.0874
0.396                   1.001752        115.1737
0.4                     1.002296        114.2473
0.404                   1.002434        113.3169
0.408                   1.002144        112.3924
0.412                   1.001478        111.4836
0.416                   1.000551        110.5981
0.42                   0.9995241        109.7404
0.424                  0.9985775        108.9105
0.428                   0.997876        108.1046
0.432                  0.9975424         107.315
0.436                  0.9976347        106.5319
0.44                    0.998137        105.7449
0.444                  0.9989608        104.9451
0.448                  0.9999619        104.1262
0.452                   1.000965         103.286
0.456                   1.001796        102.4267
0.46                    1.002308        101.5541
0.464                   1.002414        100.6772
0.468                   1.002094        99.80585
0.472                   1.001402        98.94983
0.476                   1.000459        98.11669
0.48                   0.9994289        97.31056
0.484                  0.9984906        96.53146
0.488                  0.9978095        95.77514
0.492                  0.9975051        95.03375
0.496                  0.9976319        94.29733
0.5                    0.9981679        93.55542
0.504                   0.999019        92.79907
0.508                   1.000036        92.02234
0.512                   1.001039        91.22333
0.516                   1.001853        90.40454
0.52                    1.002333        89.57231
0.524                   1.002395        88.73576
0.528                   1.002025        87.90523
0.532                   1.001286        87.09045
0.536                   1.000305        86.29893
0.54                   0.9992537        85.53458
0.544                  0.9983153        84.79694
0.548                  0.9976561        84.08129
0.552                  0.9973934        83.37933
0.556                  0.9975752         82.6806
0.56                   0.9981711        81.97449
0.564                   0.999077        81.25198
0.568                   1.000134        80.50735
0.572                   1.001156        79.73917
0.576                   1.001962        78.95048
0.58                     1.00241        78.14825
0.584                   1.002418        77.34217
0.588                   1.001983        76.54299
0.592                   1.001178        75.76063
0.596                   1.000141        75.00256
0.6                    0.9990543        74.27232
0.604                  0.9981084        73.56893
0.608                  0.9974719        72.88693
0.612                  0.9972592        72.21731
0.616                  0.9975108        71.54905
0.62                   0.9981842        70.87112
0.624                  0.9991621        70.17449
0.628                   1.000273        69.45369
0.632                   1.001319        68.70787
0.636                   1.002116         67.9408
0.64                    1.002521        67.16029
0.644                   1.002459        66.37676
0.648                   1.001938        65.60152
0.652                   1.001044        64.84476
0.656                  0.9999316        64.11385
0.66                   0.9987956        63.41192
0.664                  0.9978368        62.73722
0.668                  0.9972261        62.08342
0.672                  0.9970754        61.44054
0.676                   0.997414        60.79683
0.68                   0.9981855        60.14075
0.684                   0.999255        59.46323
0.688                   1.000434        58.75915
0.692                   1.001515        58.02832
0.696                   1.002304        57.27547
0.7                      1.00266        56.50943
0.704                   1.002515        55.74151
0.708                   1.001891         54.9837
0.712                   1.000892        54.24652
0.716                  0.9996916        53.53718
0.72                   0.9984998        52.85825
0.724                  0.9975285        52.20713
0.728                  0.9969526        51.57633
0.732                  0.9968781        50.95477
0.736                  0.9973231        50.32976
0.74                   0.9982119        49.68925
0.744                  0.9993896         49.0241
0.748                   1.000648        48.32965
0.752                   1.001765        47.60658
0.756                   1.002538        46.86074
0.76                    1.002829        46.10217
0.764                   1.002579        45.34332
0.768                   1.001827        44.59691
0.772                   1.000698        43.87381
0.776                  0.9993879        43.18108
0.78                    0.998126        42.52058
0.784                  0.9971368         41.8886
0.788                  0.9965991        41.27633
0.792                  0.9966125        40.67137
0.796                  0.9971795        40.05995
0.8                     0.998203        39.42945
0.804                  0.9995036        38.77065
0.808                   1.000851        38.07949
0.812                   1.002004        37.35767
0.816                   1.002756        36.61242
0.82                    1.002968        35.85514
0.824                   1.002595        35.09956
0.828                   1.001695        34.35928
0.832                   1.000419        33.64552
0.836                  0.9989881        32.96507
0.84                   0.9976544        32.31894
0.844                  0.9966559         31.7021
0.848                  0.9961747        31.10416
0.852                  0.9963026        30.51116
0.856                   0.997023         29.9081
0.86                   0.9982126        29.28169
0.864                  0.9996634        28.62276
0.868                   1.001119        27.92793
0.872                   1.002319        27.20017
0.876                   1.003048        26.44828
0.88                     1.00317        25.68534
0.884                   1.002655        24.92649
0.888                   1.001584        24.18633
0.892                    1.00014        23.47648
0.896                  0.9985719        22.80337
0.9                    0.9971576        22.16702
0.904                   0.996151        21.56081
0.908                  0.9957373        20.97251
0.912                  0.9959979        20.38638
0.916                  0.9968933        19.78604
0.92                   0.9982703        19.15746
0.924                  0.9998872        18.49158
0.928                   1.001457        17.78587
0.932                     1.0027        17.04482
0.936                   1.003389        16.27907
0.94                    1.003393         15.5036
0.944                   1.002702        14.73522
0.948                   1.001424        13.98968
0.952                  0.9997767        13.27898
0.956                  0.9980453        12.60913
0.96                   0.9965359        11.97891
0.964                  0.9955207        11.37985
0.968                  0.9951881        10.79752
0.972                  0.9956066        10.21408
0.976                  0.9967102        9.611546
0.98                   0.9983094         8.97507
0.984                   1.000124        8.295703
0.988                   1.001831        7.571981
0.992                   1.003125        6.810131
0.996                   1.003771        6.022966
1                       1.003643        5.227702
1.004                   1.002749        4.443055
1.008                   1.001235        3.686096
1.012                  0.9993574        2.969275
1.016                  0.9974424        2.298091
1.02                   0.9958299        1.669861
1.024                  0.9948133        1.073893
1.028                  0.9945839       0.4931928
1.032                  0.9951946      -0.0925459
1.036                  0.9965475      -0.7032057
1.04                   0.9984099       -1.354552
1.044                   1.000455       -2.055343
1.048                    1.00232       -2.805785
1.052                   1.003669       -3.597551
1.056                   1.004254       -4.415247
1.06                    1.003957       -5.239021
1.064                   1.002811       -6.047849
1.068                   1.001002       -6.823074
1.072                  0.9988348       -7.551661
1.076                  0.9966848       -8.228702
1.08                   0.9949338       -8.858581
1.084                  0.9939004       -9.454612
1.088                  0.9937808       -10.03695
1.092                  0.9946096       -10.62888
1.096                  0.9962515       -11.25253
1.1                    0.9984222       -11.92487
1.104                    1.00074       -12.65444
1.108                   1.002791       -13.43997
1.112                   1.004205       -14.27069
1.116                   1.004718       -15.12809
1.12                    1.004218       -15.98916
1.124                   1.002771       -16.83007
1.128                   1.000608       -17.63023
1.132                  0.9980942        -18.3758
1.136                  0.9956649        -19.0625
1.14                    0.993753       -19.69683
1.144                  0.9927099       -20.29535
1.148                  0.9927387         -20.882
1.152                  0.9938526       -21.48384
1.156                    0.99587       -22.12595
1.16                   0.9984435       -22.82676
1.164                   1.001122       -23.59468
1.168                    1.00343       -24.42671
1.172                   1.004949       -25.30901
1.176                   1.005393       -26.21934
1.18                    1.004659        -27.1307
1.184                   1.002845       -28.01568
1.188                   1.000241       -28.85104
1.192                  0.9972849        -29.6218
1.196                  0.9944894       -30.32427
1.2                    0.9923541       -30.96738
1.204                  0.9912744       -31.57166
1.208                  0.9914656       -32.16595
1.212                  0.9929177       -32.78213
1.216                  0.9953924       -33.44914
1.22                   0.9984635        -34.1875
1.224                   1.001591        -35.0056
1.228                   1.004217       -35.89836
1.232                   1.005862       -36.84821
1.236                   1.006207       -37.82813
1.24                    1.005153       -38.80596
1.244                    1.00284       -39.74951
1.248                   0.999631       -40.63185
1.252                  0.9960588       -41.43613
1.256                  0.9927391       -42.15907
1.26                   0.9902647       -42.81257
1.264                  0.9890962       -43.42234
1.268                  0.9894723        -44.0238
1.272                  0.9913577       -44.65556
1.276                  0.9944437        -45.3521
1.28                    0.998199       -46.13718
1.284                   1.001964        -47.0196
1.288                   1.005065       -47.99187
1.292                   1.006932       -49.03168
1.296                   1.007196       -50.10569
1.3                     1.005752       -51.17471
1.304                   1.002788       -52.19978
1.308                  0.9987605        -53.1485
1.312                  0.9943317       -54.00071
1.316                  0.9902624       -54.75313
1.32                   0.9872819       -55.42119
1.324                  0.9859533       -56.03763
1.328                  0.9865598       -56.64728
1.332                  0.9890409       -57.29873
1.336                  0.9929941       -58.03493
1.34                   0.9977409       -58.88497
1.344                   1.002447        -59.8589
1.348                   1.006266       -60.94633
1.352                   1.008485       -62.11861
1.356                   1.008642       -63.33345
1.36                    1.006611       -64.54136
1.364                   1.002632       -65.69293
1.368                  0.9972906        -66.7466
1.372                  0.9914358       -67.67601
1.376                  0.9860538       -68.47615
1.38                   0.9820989       -69.16667
1.384                  0.9803159       -69.79047
1.388                  0.9810862       -70.40716
1.392                  0.9843364        -71.0819
1.396                  0.9895363       -71.87253
1.4                    0.9957854       -72.81835
1.404                    1.00197       -73.93306
1.408                   1.006955       -75.20334
1.412                   1.009774       -76.59161
1.416                   1.009784       -78.04222
1.42                    1.006785       -79.48927
1.424                   1.001064       -80.86561
1.428                  0.9933854       -82.11265
1.432                  0.9849002       -83.19068
1.436                  0.9769856       -84.08852
1.44                   0.9710198       -84.83004
1.444                  0.9681229       -85.47483
1.448                  0.9689176       -86.11005
1.452                  0.9733703       -86.83431
1.456                  0.9807622       -87.73761
1.46                   0.9898018       -88.88334
1.464                  0.9988469       -90.29746
1.468                   1.006178       -91.96629
1.472                   1.010274       -93.84074
1.476                   1.010041       -95.84453
1.48                     1.00499       -97.88381
1.484                  0.9953444       -99.85776
1.488                  0.9820662       -101.6708
1.492                  0.9667985       -103.2477
1.496                  0.9516904       -104.5512
1.5                    0.9390928       -105.6012
1.504                   0.931133       -106.4868
1.508                  0.9292343       -107.3634
1.512                  0.9337091       -108.4288
1.516                  0.9435648       -109.8839
1.52                   0.9565962       -111.8928
1.524                  0.9697141       -114.5598
1.528                  0.9793829       -117.9259
1.532                  0.9820433       -121.9818
1.536                  0.9744461       -126.6853
1.54                   0.9538839       -131.9781
1.544                  0.9183344       -137.7984
1.548                  0.8665357       -144.0903
1.552                  0.7980121       -150.8111
1.556                  0.7130677       -157.9407
1.56                    0.612751       -165.4992
1.564                  0.4988082        -173.593
1.568                  0.3736531        177.4371
1.572                  0.2405135        166.3546
1.576                  0.1055673        145.2416
1.58                  0.06269388        24.52952
1.584                  0.1920276       -13.04933
1.588                   0.326828       -25.84005
1.592                  0.4551333       -35.33095
1.596                  0.5732297       -43.68758
1.6                    0.6784633       -51.43216
1.604                  0.7688611       -58.72716
1.608                  0.8431313        -65.6157
1.612                  0.9007092       -72.08923
1.616                  0.9417975       -78.11188
1.62                   0.9673825       -83.63169
1.624                  0.9792217       -88.58818
1.628                  0.9797869       -92.92058
1.632                  0.9721496       -96.57908
1.636                  0.9597848       -99.54013
1.64                   0.9462762       -101.8245
1.644                  0.9349231       -103.5127
1.648                  0.9282987       -104.7487
1.652                  0.9278649       -105.7241
1.656                  0.9337833       -106.6435
1.66                   0.9450037       -107.6821
1.664                  0.9596057       -108.9555
1.668                  0.9752659       -110.5088
1.672                  0.9897136       -112.3243
1.676                   1.001081       -114.3391
1.68                    1.008124       -116.4633
1.684                   1.010319       -118.5967
1.688                   1.007875       -120.6414
1.692                   1.001646       -122.5123
1.696                  0.9929993       -124.1477
1.7                    0.9835977       -125.5176
1.704                  0.9751531       -126.6302
1.708                  0.9691455       -127.5329
1.712                  0.9665752       -128.3055
1.716                  0.9677964       -129.0454
1.72                   0.9724796       -129.8477
1.724                  0.9797135       -130.7866
1.728                   0.988211       -131.9035
1.732                  0.9965644       -133.2037
1.736                   1.003487       -134.6604
1.74                    1.008005       -136.2233
1.744                   1.009579       -137.8284
1.748                   1.008157       -139.4081
1.752                   1.004154       -140.9002
1.756                   0.998373       -142.2564
1.76                   0.9918755       -143.4493
1.764                  0.9858087       -144.4769
1.768                  0.9812157       -145.3641
1.772                  0.9788589       -146.1588
1.776                  0.9790896       -146.9233
1.78                   0.9817974        -147.722
1.784                  0.9864493       -148.6091
1.788                  0.9922062       -149.6192
1.792                  0.9980861       -150.7628
1.796                   1.003138       -152.0269
1.8                     1.006593       -153.3794
1.804                   1.007977       -154.7755
1.808                   1.007164       -156.1653
1.812                   1.004382        -157.501
1.816                   1.000171        -158.744
1.82                   0.9952846       -159.8702
1.824                   0.990572       -160.8743
1.828                  0.9868338       -161.7712
1.832                  0.9846871       -162.5932
1.836                  0.9844603       -163.3849
1.84                   0.9861419       -164.1942
1.844                  0.9893932       -165.0637
1.848                  0.9936215        -166.023
1.852                  0.9980939       -167.0843
1.856                   1.002068       -168.2415
1.86                    1.004916       -169.4729
1.864                   1.006216       -170.7457
1.868                   1.005813       -172.0211
1.872                   1.003831       -173.2611
1.876                   1.000647       -174.4335
1.88                   0.9968253       -175.5171
1.884                   0.993024       -176.5049
1.888                  0.9898848       -177.4057
1.892                  0.9879251       -178.2426
1.896                  0.9874503       -179.0488
1.9                    0.9885045        -179.862
1.904                    0.99087        179.2832
1.908                  0.9941143        178.3612
1.912                  0.9976719        177.3591
1.916                   1.000947        176.2786
1.92                    1.003411        175.1346
1.924                   1.004687        173.9516
1.928                   1.004605        172.7603
1.932                   1.003216        171.5919
1.936                   1.000786        170.4735
1.94                   0.9977421        169.4244
1.944                  0.9946045        168.4526
1.948                  0.9918996        167.5535
1.952                  0.9900704        166.7108
1.956                  0.9894034        165.8992
1.96                   0.9899819        165.0889
1.964                   0.991676        164.2511
1.968                  0.9941722        163.3631
1.972                  0.9970325        162.4121
1.976                  0.9997734        161.3963
1.98                    1.001947        160.3253
1.984                   1.003212        159.2176
1.988                   1.003386        158.0971
1.992                   1.002466        156.9895
1.996                   1.000628        155.9182
2                      0.9981913        154.9007
2.004                  0.9955661         153.946
2.008                  0.9931863        153.0529
2.012                   0.991436        152.2105
2.016                  0.9905874           151.4
2.02                   0.9907561        150.5977
2.024                  0.9918851        149.7796
2.028                  0.9937597        148.9255
2.032                  0.9960487        148.0222
2.036                  0.9983627        147.0654
2.04                    1.000321          146.06
2.044                   1.001612         145.019
2.048                    1.00204        143.9607
2.052                   1.001553         142.906
2.056                   1.000246         141.875
2.06                   0.9983409        140.8839
2.064                  0.9961523        139.9428
2.068                  0.9940334        139.0537
2.072                  0.9923184        138.2107
2.076                  0.9912701        137.4006
2.08                   0.9910365        136.6054
2.084                  0.9916298        135.8052
2.088                  0.9929283        134.9819
2.092                  0.9946989        134.1219
2.096                  0.9966392        133.2182
2.1                    0.9984291        132.2712
2.104                  0.9997797        131.2883
2.108                   1.000479        130.2827
2.112                   1.000421        129.2707
2.116                   0.999619        128.2694
2.12                   0.9982006        127.2943
2.124                  0.9963854        126.3568
2.128                  0.9944515        125.4625
2.132                  0.9926897        124.6105
2.136                    0.99136        123.7934
2.14                   0.9906511        122.9987
2.144                  0.9906506        122.2106
2.148                  0.9913351        121.4124
2.152                  0.9925743        120.5899
2.156                  0.9941538        119.7327
2.16                   0.9958108         118.836
2.164                  0.9972738        117.9016
2.168                  0.9983038        116.9366
2.172                  0.9987288        115.9526
2.176                  0.9984679        114.9643
2.18                   0.9975415        113.9864
2.184                  0.9960678        113.0326
2.188                  0.9942461        112.1128
2.192                  0.9923274        111.2321
2.196                  0.9905787        110.3897
2.2                    0.9892433         109.579
2.204                   0.988504        108.7882
2.208                  0.9884544        108.0023
2.212                  0.9890845        107.2053
2.216                  0.9902794        106.3822
2.22                   0.9918361        105.5219
2.224                  0.9934924        104.6183
2.228                  0.9949645        103.6717
2.232                  0.9959887        102.6884
2.236                  0.9963592        101.6798
2.24                   0.9959601        100.6613
2.244                  0.9947844        99.64949
2.248                  0.9929388        98.66053
2.252                  0.9906335        97.70741
2.256                  0.9881563        96.79778
2.26                   0.9858331        95.93253
2.264                  0.9839798        95.10498
2.268                  0.9828528        94.30137
2.272                   0.982604        93.50257
2.276                  0.9832503        92.68669
2.28                   0.9846631        91.83253
2.284                  0.9865803        90.92308
2.288                  0.9886417        89.94819
2.292                    0.99044        88.90642
2.296                  0.9915819        87.80548
2.3                    0.9917482        86.66123
2.304                  0.9907478        85.49573
2.308                  0.9885543        84.33412
2.312                  0.9853202        83.20117
2.316                  0.9813688        82.11719
2.32                   0.9771554        81.09433
2.324                  0.9732055        80.13344
2.328                  0.9700335        79.22233
2.332                  0.9680525         78.3362
2.336                  0.9674934        77.44034
2.34                   0.9683466        76.49526
2.344                  0.9703429        75.46303
2.348                  0.9729793        74.31368
2.352                   0.975585        73.03019