! TOUCHSTONE file generated by CST MICROWAVE STUDIO
! Date and time: Tue Jun 14 14:31:11 2022
! Project name: AppElm_antenne_patch_FR4.cst
! Parameters = {L=45; W=58.5; e=0.035; h=1.6; lambda=0.190476; ls=90; w0=2.54; w1=0.847; ws=120; y0=18; y1=23.8}
! Header version: 2018
! Port assignment regex: !\s*Touchstone port\s*([0-9]+)\s*=\s*(CST MWS port|CST DS port)\s*([0-9]+|Zmin|Zmax)\s*\(\"(.*)\"\)(\s*mode\s*([0-9]+))?.*
! Touchstone port assignment:
! Touchstone port 1 = CST MWS port 1 ("")
# GHz S MA R 50
0                      0.9877147              -0
0.004                  0.9884473       -9.979074
0.008                   0.990544       -19.86498
0.012                  0.9937167       -29.56938
0.016                  0.9975349       -39.01279
0.02                    1.001491        -48.1271
0.024                   1.005071       -56.85687
0.028                   1.007829       -65.15911
0.032                    1.00944       -73.00263
0.036                   1.009743       -80.36713
0.04                    1.008753       -87.24249
0.044                   1.006659       -93.62854
0.048                   1.003793       -99.53504
0.052                    1.00058        -104.982
0.056                  0.9974833       -109.9992
0.06                    0.994931       -114.6257
0.064                  0.9932587       -118.9075
0.068                  0.9926615       -122.8947
0.072                  0.9931669       -126.6374
0.076                  0.9946384       -130.1816
0.08                   0.9968027       -133.5662
0.084                  0.9992968       -136.8198
0.088                    1.00173       -139.9606
0.092                   1.003739       -142.9962
0.096                   1.005045       -145.9261
0.1                      1.00549       -148.7441
0.104                   1.005051        -151.441
0.108                   1.003841       -154.0081
0.112                   1.002084       -156.4397
0.116                   1.000082       -158.7356
0.12                   0.9981617       -160.9018
0.124                  0.9966253       -162.9511
0.128                   0.995703       -164.9017
0.132                  0.9955178       -166.7755
0.136                  0.9960698       -168.5949
0.14                   0.9972395       -170.3802
0.144                  0.9988127       -172.1467
0.148                   1.000519       -173.9038
0.152                   1.002076       -175.6534
0.156                   1.003239       -177.3915
0.16                    1.003834       -179.1088
0.164                   1.003784        179.2067
0.168                   1.003119        177.5674
0.172                   1.001969        175.9839
0.176                   1.000537        174.4631
0.18                   0.9990665        173.0064
0.184                  0.9978026        171.6099
0.188                  0.9969491        170.2643
0.192                  0.9966368        168.9563
0.196                  0.9969026        167.6711
0.2                    0.9976859        166.3943
0.204                  0.9988412        165.1142
0.208                   1.000165        163.8237
0.212                    1.00143        162.5211
0.216                   1.002428        161.2097
0.22                    1.002997        159.8975
0.224                   1.003051         158.595
0.228                   1.002594        157.3139
0.232                    1.00171        156.0644
0.236                   1.000558        154.8542
0.24                   0.9993357        153.6864
0.244                  0.9982504        152.5596
0.248                  0.9974833        151.4675
0.252                  0.9971589        150.4002
0.256                  0.9973242        149.3459
0.26                   0.9979419        148.2926
0.264                  0.9988985        147.2304
0.268                   1.000025         146.153
0.272                   1.001126        145.0585
0.276                   1.002016        143.9499
0.28                    1.002544        142.8338
0.284                   1.002628        141.7197
0.288                   1.002259        140.6182
0.292                   1.001505        139.5391
0.296                   1.000499        138.4896
0.3                    0.9994147        137.4734
0.304                  0.9984401        136.4899
0.308                  0.9977404         135.534
0.312                  0.9974331        134.5974
0.316                  0.9975671        133.6695
0.32                   0.9981143        132.7398
0.324                   0.998976        131.7991
0.328                   1.000001        130.8418
0.332                    1.00101        129.8659
0.336                   1.001831         128.874
0.34                    1.002323        127.8724
0.344                   1.002407        126.8697
0.348                   1.002069         125.876
0.352                   1.001372        124.9006
0.356                   1.000437        123.9505
0.36                    0.999428        123.0293
0.364                  0.9985194        122.1367
0.368                  0.9978681        121.2681
0.372                  0.9975861        120.4157
0.376                  0.9977207        119.5697
0.38                   0.9982463        118.7202
0.384                  0.9990694        117.8586
0.388                   1.000045        116.9794
0.392                   1.001004        116.0809
0.396                    1.00178        115.1657
0.4                     1.002239        114.2398
0.404                   1.002304        113.3117
0.408                   1.001964        112.3912
0.412                   1.001279        111.4871
0.416                   1.000369        110.6064
0.42                   0.9993936        109.7525
0.424                  0.9985213        108.9251
0.428                  0.9979052        108.1196
0.432                  0.9976523        107.3283
0.436                  0.9978068        106.5418
0.44                   0.9983407        105.7502
0.444                    0.99916        104.9454
0.448                   1.000121         104.122
0.452                   1.001055        103.2788
0.456                     1.0018        102.4183
0.46                    1.002225        101.5467
0.464                   1.002258        100.6726
0.468                    1.00189        99.80568
0.472                   1.001187        98.95481
0.476                   1.000271        98.12667
0.48                   0.9993007        97.32455
0.484                  0.9984463        96.54771
0.488                  0.9978577         95.7915
0.492                  0.9976387        95.04802
0.496                  0.9978285        94.30768
0.5                    0.9983937        93.56073
0.504                  0.9992352        92.79911
0.508                   1.000205        92.01781
0.512                   1.001133        91.21577
0.516                   1.001856        90.39601
0.52                    1.002246        89.56504
0.524                   1.002234        88.73182
0.528                   1.001821        87.90605
0.532                   1.001078        87.09668
0.536                   1.000132        86.31024
0.54                    0.999149        85.54974
0.544                  0.9983017        84.81402
0.548                  0.9977394        84.09797
0.552                  0.9975628        83.39331
0.556                   0.997804        82.69008
0.56                   0.9984217        81.97843
0.564                  0.9993076        81.25036
0.568                   1.000306        80.50114
0.572                   1.001241        79.73015
0.576                   1.001948        78.94093
0.58                      1.0023         78.1406
0.584                   1.002235        77.33849
0.588                    1.00176         76.5447
0.592                   1.000958        75.76823
0.596                  0.9999658        75.01551
0.6                    0.9989584        74.28914
0.604                  0.9981129        73.58743
0.608                  0.9975799         72.9046
0.612                  0.9974558        72.23176
0.616                  0.9977648        71.55847
0.62                   0.9984542        70.87461
0.624                  0.9994036        70.17221
0.628                   1.000446        69.44689
0.632                   1.001398        68.69856
0.636                    1.00209        67.93148
0.64                    1.002398         67.1535
0.644                   1.002266        66.37459
0.648                   1.001714        65.60529
0.652                   1.000835        64.85476
0.656                  0.9997811        64.12925
0.66                   0.9987384        63.43092
0.664                  0.9978912        62.75736
0.668                  0.9973914        62.10195
0.672                  0.9973305        61.45499
0.676                  0.9977224        60.80541
0.68                   0.9985005        60.14274
0.684                  0.9995289        59.45906
0.688                   1.000626        58.75037
0.692                   1.001599        58.01728
0.696                   1.002273        57.26494
0.7                     1.002528        56.50207
0.704                   1.002313        55.73948
0.708                   1.001664        54.98822
0.712                    1.00069        54.25766
0.716                  0.9995596        53.55384
0.72                   0.9984724        52.87832
0.724                  0.9976214        52.22784
0.728                  0.9971604        51.59474
0.732                  0.9971745        50.96837
0.736                  0.9976654        50.33683
0.74                   0.9985491        49.68931
0.744                  0.9996709         49.0179
0.748                   1.000833        48.31908
0.752                   1.001829        47.59435
0.756                   1.002481         46.8499
0.76                    1.002669        46.09551
0.764                   1.002355        45.34297
0.768                   1.001589        44.60393
0.772                   1.000501        43.88797
0.776                  0.9992807        43.20089
0.78                    0.998142        42.54352
0.784                  0.9972884        41.91154
0.788                  0.9968751        41.29608
0.792                  0.9969797         40.6853
0.796                  0.9975886        40.06643
0.8                    0.9985971        39.42819
0.804                  0.9998287        38.76276
0.808                   1.001065        38.06724
0.812                   1.002087        37.34414
0.816                    1.00271        36.60088
0.82                    1.002818        35.84855
0.824                   1.002387            35.1
0.828                   1.001485        34.36761
0.832                   1.000266         33.6612
0.836                  0.9989423        32.98616
0.84                   0.9977469        32.34253
0.844                  0.9968945        31.72468
0.848                  0.9965411        31.12233
0.852                  0.9967551        30.52225
0.856                  0.9975043        29.91066
0.86                   0.9986596        29.27578
0.864                   1.000019        28.60995
0.868                   1.001341        27.91099
0.872                    1.00239        27.18263
0.876                   1.002977        26.43377
0.88                     1.00299        25.67697
0.884                    1.00242        24.92633
0.888                    1.00136        24.19505
0.892                  0.9999895        23.49313
0.896                  0.9985476         22.8256
0.9                    0.9972898        22.19139
0.904                  0.9964427        21.58343
0.908                   0.996163        20.98971
0.912                  0.9965076        20.39544
0.916                  0.9974218        19.78566
0.92                   0.9987485        19.14807
0.924                   1.000255        18.47521
0.928                   1.001674        17.76581
0.932                   1.002751        17.02501
0.936                   1.003291        16.26345
0.94                     1.00319        15.49539
0.944                   1.002456        14.73638
0.948                   1.001209        14.00053
0.952                   0.999661         13.2981
0.956                  0.9980823        12.63356
0.96                   0.9967533        12.00462
0.964                  0.9959147        11.40243
0.968                  0.9957232        10.81301
0.972                  0.9962219         10.2197
0.976                  0.9973296        9.606234
0.98                   0.9988554        8.959685
0.984                   1.000531        8.272875
0.988                    1.00206         7.54563
0.992                   1.003166        6.784776
0.996                   1.003648        6.002948
1                       1.003408        5.216435
1.004                   1.002478        4.442441
1.008                   1.001008        3.696164
1.012                  0.9992503         2.98812
1.016                    0.99751         2.32215
1.02                   0.9960973        1.694496
1.024                  0.9952694        1.094215
1.028                  0.9951829       0.5049669
1.032                  0.9958638     -0.09208076
1.036                  0.9972002      -0.7147971
1.04                   0.9989611       -1.376778
1.044                   1.000837       -2.084869
1.048                   1.002493       -2.837961
1.052                   1.003632       -3.627226
1.056                   1.004041       -4.437651
1.06                    1.003635       -5.250572
1.064                   1.002469       -6.046787
1.068                   1.000733       -6.809806
1.072                  0.9987219       -7.528776
1.076                  0.9967868       -8.200587
1.08                   0.9952724       -8.830742
1.084                  0.9944562         -9.4327
1.088                   0.994495       -10.02564
1.092                  0.9953951       -10.63102
1.096                  0.9970071       -11.26865
1.1                    0.9990521       -11.95298
1.104                    1.00117       -12.69043
1.108                   1.002983       -13.47838
1.112                   1.004163       -14.30568
1.116                   1.004488       -15.15443
1.12                    1.003881       -16.00301
1.124                   1.002428       -16.82987
1.128                   1.000365       -17.61684
1.132                  0.9980424       -18.35257
1.136                  0.9958646       -19.03479
1.14                   0.9942205       -19.67107
1.144                  0.9934134       -20.27794
1.148                  0.9936024       -20.87808
1.152                  0.9947703       -21.49625
1.156                  0.9967227       -22.15472
1.16                   0.9991215       -22.86903
1.164                   1.001544       -23.64526
1.168                   1.003559       -24.47897
1.172                   1.004797       -25.35605
1.176                   1.005022       -26.25512
1.18                    1.004169       -27.15103
1.184                   1.002358       -28.01899
1.188                  0.9998822       -28.83871
1.192                  0.9971594       -29.59806
1.196                  0.9946635       -30.29561
1.2                    0.9928415       -30.94148
1.204                  0.9920323       -31.55599
1.208                  0.9924005       -32.16633
1.212                  0.9939016       -32.80158
1.216                  0.9962859       -33.48727
1.22                    0.999141       -34.24055
1.224                   1.001964       -35.06718
1.228                   1.004248       -35.96057
1.232                   1.005575       -36.90301
1.236                   1.005683       -37.86863
1.24                    1.004516       -38.82762
1.244                   1.002238       -39.75094
1.248                  0.9992124       -40.61523
1.252                  0.9959459       -41.40702
1.256                  0.9930051       -42.12569
1.26                   0.9909175       -42.78442
1.264                  0.9900748       -43.40854
1.268                  0.9906546       -44.03129
1.272                  0.9925818        -44.6877
1.276                  0.9955361       -45.40797
1.28                   0.9990062       -46.21178
1.284                   1.002379       -47.10481
1.288                   1.005048       -48.07785
1.292                   1.006515       -49.10852
1.296                    1.00648       -50.16507
1.3                     1.004891       -51.21118
1.304                   1.001966       -52.21178
1.308                  0.9981581       -53.13881
1.312                  0.9940973       -53.97633
1.316                   0.990482       -54.72428
1.32                   0.9879604       -55.39969
1.324                  0.9870089       -56.03472
1.328                  0.9878354       -56.67133
1.332                  0.9903307       -57.35348
1.336                  0.9940802       -58.11868
1.34                   0.9984336       -58.99089
1.344                   1.002618        -59.9763
1.348                   1.005872       -61.06255
1.352                   1.007575       -62.22104
1.356                   1.007354       -63.41152
1.36                    1.005151       -64.58823
1.364                   1.001241       -65.70667
1.368                  0.9962104       -66.73094
1.372                  0.9908649       -67.64023
1.376                  0.9861102       -68.43405
1.38                   0.9827933       -69.13439
1.384                  0.9815415       -69.78357
1.388                   0.982633       -70.43746
1.392                  0.9859264       -71.15495
1.396                  0.9908729       -71.98645
1.4                    0.9966078       -72.96419
1.404                     1.0021       -74.09671
1.408                   1.006325         -75.368
1.412                   1.008443       -76.74054
1.416                    1.00793       -78.16125
1.42                    1.004679       -79.56895
1.424                  0.9990323       -80.90304
1.428                  0.9917592        -82.1126
1.432                  0.9839575       -83.16589
1.436                  0.9768954       -84.05868
1.44                   0.9717965       -84.81905
1.444                  0.9696071       -85.50634
1.448                  0.9707896       -86.20249
1.452                  0.9751992       -86.99666
1.456                  0.9820803        -87.9673
1.46                   0.9901866       -89.16698
1.464                  0.9979913       -90.61362
1.468                    1.00394       -92.28927
1.472                   1.006695       -94.14441
1.476                   1.005347       -96.10572
1.48                   0.9995609       -98.08512
1.484                  0.9896678       -99.99029
1.488                  0.9766712       -101.7366
1.492                    0.96217       -103.2616
1.496                  0.9481718       -104.5418
1.5                    0.9367889       -105.6082
1.504                  0.9298388       -106.5546
1.508                   0.928418       -107.5316
1.512                  0.9325669       -108.7219
1.516                  0.9411412        -110.305
1.52                   0.9519302       -112.4238
1.524                  0.9619708       -115.1661
1.528                  0.9679447       -118.5634
1.532                   0.966554       -122.6021
1.536                  0.9548197       -127.2389
1.54                   0.9302891       -132.4146
1.544                  0.8911647       -138.0647
1.548                  0.8363713       -144.1263
1.552                   0.765579       -150.5422
1.556                  0.6791885       -157.2644
1.56                   0.5782918       -164.2586
1.564                  0.4646068       -171.5167
1.568                  0.3403966       -179.0967
1.572                   0.208383        172.6714
1.576                 0.07183609        160.6022
1.58                  0.06788476       -11.84676
1.584                   0.204368         -24.293
1.588                  0.3363152       -32.56039
1.592                  0.4604387       -40.15634
1.596                  0.5740257       -47.42798
1.6                    0.6748255       -54.43686
1.604                  0.7611329       -61.17569
1.608                  0.8318688       -67.61086
1.612                   0.886642        -73.6947
1.616                  0.9257894       -79.37036
1.62                   0.9503874       -84.57518
1.624                  0.9622301         -89.245
1.628                  0.9637599       -93.32098
1.632                   0.957942       -96.75995
1.636                  0.9480565       -99.54836
1.64                   0.9374047       -101.7176
1.644                  0.9289368       -103.3548
1.648                  0.9248595       -104.6023
1.652                  0.9263243       -105.6389
1.656                  0.9333073       -106.6472
1.66                   0.9447347       -107.7777
1.664                  0.9588118       -109.1254
1.668                  0.9734433       -110.7222
1.672                  0.9866289       -112.5457
1.676                  0.9967653       -114.5348
1.68                    1.002832       -116.6058
1.684                   1.004471        -118.667
1.688                   1.001982       -120.6303
1.692                  0.9962372        -122.422
1.696                  0.9885385        -123.991
1.7                    0.9804179        -125.317
1.704                  0.9733976        -126.415
1.708                  0.9687439       -127.3343
1.712                  0.9672547        -128.151
1.716                  0.9691346        -128.953
1.72                   0.9739855       -129.8231
1.724                  0.9809171        -130.823
1.728                  0.9887419       -131.9843
1.732                  0.9962023       -133.3066
1.736                   1.002182       -134.7616
1.74                    1.005872       -136.3012
1.744                   1.006866       -137.8664
1.748                     1.0052       -139.3965
1.752                   1.001324       -140.8371
1.756                  0.9960173       -142.1481
1.76                   0.9902623       -143.3093
1.764                  0.9850838       -144.3242
1.768                  0.9813772       -145.2199
1.772                  0.9797585       -146.0425
1.776                  0.9804608       -146.8488
1.78                   0.9833069       -147.6953
1.784                  0.9877584       -148.6274
1.788                  0.9930296       -149.6723
1.792                  0.9982366       -150.8351
1.796                   1.002552       -152.1006
1.8                     1.005333       -153.4376
1.804                   1.006214       -154.8043
1.808                    1.00515        -156.156
1.812                   1.002408       -157.4508
1.816                  0.9985166       -158.6567
1.82                   0.9941789       -159.7556
1.824                  0.9901532       -160.7469
1.828                  0.9871263       -161.6475
1.832                  0.9855979        -162.489
1.836                  0.9857966       -163.3123
1.84                    0.987647       -164.1596
1.844                  0.9907936       -165.0665
1.848                  0.9946743       -166.0563
1.852                  0.9986273       -167.1365
1.856                   1.002006       -168.2984
1.86                    1.004287       -169.5204
1.864                   1.005143       -170.7715
1.868                   1.004491       -172.0172
1.872                   1.002496        -173.224
1.876                  0.9995362       -174.3656
1.88                   0.9961384       -175.4257
1.884                  0.9928907       -176.4015
1.888                  0.9903421        -177.304
1.892                  0.9889112        -178.156
1.896                  0.9888156       -178.9882
1.9                    0.9900389       -179.8336
1.904                  0.9923408        179.2789
1.908                  0.9953062         178.329
1.912                  0.9984241        177.3085
1.916                   1.001177        176.2215
1.92                    1.003126        175.0834
1.924                    1.00398        173.9176
1.928                   1.003636        172.7515
1.932                   1.002188        171.6119
1.936                  0.9999097        170.5215
1.94                   0.9972017        169.4945
1.944                  0.9945283        168.5354
1.948                  0.9923368        167.6371
1.952                  0.9909841        166.7834
1.956                  0.9906763        165.9506
1.96                   0.9914376        165.1127
1.964                  0.9931107        164.2459
1.968                    0.99539        163.3322
1.972                  0.9978791         162.363
1.976                    1.00016        161.3395
1.98                    1.001865         160.272
1.984                   1.002731        159.1781
1.988                   1.002641        158.0794
1.992                   1.001636        156.9976
1.996                  0.9999048         155.952
2                      0.9977487        154.9558
2.004                  0.9955322         154.014
2.008                  0.9936202        153.1235
2.012                  0.9923188        152.2726
2.016                  0.9918241        151.4437
2.02                   0.9921931        150.6165
2.024                  0.9933366        149.7711
2.028                  0.9950404        148.8919
2.032                  0.9970044        147.9697
2.036                  0.9988964        147.0033
2.04                    1.000408        145.9988
2.044                   1.001301        144.9686
2.048                   1.001445        143.9292
2.052                   1.000835         142.898
2.056                  0.9995837        141.8914
2.06                   0.9979046        140.9212
2.064                  0.9960731         139.994
2.068                  0.9943818        139.1094
2.072                  0.9930928        138.2603
2.076                  0.9923952        137.4346
2.08                   0.9923775        136.6167
2.084                  0.9930149        135.7907
2.088                   0.994178        134.9427
2.092                  0.9956568        134.0631
2.096                  0.9971987        133.1481
2.1                    0.9985489        132.1999
2.104                  0.9994916        131.2257
2.108                  0.9998811        130.2372
2.112                  0.9996613        129.2477
2.116                  0.9988708        128.2706
2.12                   0.9976345        127.3172
2.124                   0.996142        126.3954
2.128                  0.9946162        125.5079
2.132                  0.9932793        124.6524
2.136                  0.9923182        123.8221
2.14                   0.9918581        123.0064
2.144                   0.991943        122.1929
2.148                   0.992533        121.3693
2.152                  0.9935119        120.5254
2.156                   0.994708        119.6544
2.16                   0.9959202        118.7537
2.164                  0.9969494        117.8255
2.168                  0.9976263        116.8757
2.172                  0.9978358        115.9136
2.176                  0.9975305        114.9498
2.18                   0.9967372        113.9953
2.184                   0.995551        113.0596
2.188                  0.9941226        112.1495
2.192                  0.9926357        111.2683
2.196                  0.9912828        110.4149
2.2                     0.990237        109.5843
2.204                  0.9896276        108.7679
2.208                  0.9895213         107.955
2.212                  0.9899115        107.1338
2.216                   0.990718        106.2935
2.22                   0.9917976        105.4259
2.224                  0.9929626        104.5262
2.228                  0.9940065        103.5939
2.232                  0.9947326         102.633
2.236                  0.9949818        101.6514
2.24                   0.9946561        100.6599
2.244                  0.9937354        99.67102
2.248                  0.9922835         98.6969
2.252                  0.9904441        97.74782
2.256                  0.9884244        96.83048
2.26                   0.9864687        95.94663
2.264                  0.9848238        95.09239
2.268                   0.983701        94.25826
2.272                  0.9832403        93.43018
2.276                  0.9834824        92.59128
2.28                   0.9843554        91.72445
2.284                  0.9856772        90.81494
2.288                  0.9871781        89.85287
2.292                  0.9885357        88.83493
2.296                  0.9894231        87.76514
2.3                    0.9895592        86.65456
2.304                  0.9887545        85.51996
2.308                  0.9869476        84.38156
2.312                  0.9842245        83.26006
2.316                  0.9808172        82.17344
2.32                    0.977079        81.13361
2.324                  0.9734379        80.14359
2.328                  0.9703311        79.19564
2.332                  0.9681308        78.27108
2.336                   0.967071        77.34223
2.34                   0.9671923        76.37599
2.344                  0.9683159         75.3391
2.348                  0.9700534        74.20357
2.352                  0.9718548        72.95148