! TOUCHSTONE file generated by CST MICROWAVE STUDIO
! Date and time: Tue Jun 14 14:31:19 2022
! Project name: AppElm_antenne_patch_FR4.cst
! Parameters = {L=45; W=58.5; e=0.035; h=1.6; lambda=0.190476; ls=138; w0=2.54; w1=0.847; ws=120; y0=18; y1=23.8}
! Header version: 2018
! Port assignment regex: !\s*Touchstone port\s*([0-9]+)\s*=\s*(CST MWS port|CST DS port)\s*([0-9]+|Zmin|Zmax)\s*\(\"(.*)\"\)(\s*mode\s*([0-9]+))?.*
! Touchstone port assignment:
! Touchstone port 1 = CST MWS port 1 ("")
# GHz S MA R 50
0                      0.9875637              -0
0.004                   0.988301       -9.979141
0.008                  0.9904118       -19.86519
0.012                  0.9936069       -29.56988
0.016                  0.9974544       -39.01378
0.02                    1.001444        -48.1289
0.024                   1.005061       -56.85979
0.028                   1.007854       -65.16352
0.032                   1.009495        -73.0089
0.036                   1.009821       -80.37554
0.04                    1.008844       -87.25324
0.044                    1.00675       -93.64164
0.048                   1.003871       -99.55032
0.052                   1.000633        -104.999
0.056                  0.9975002       -110.0172
0.06                   0.9949068       -114.6439
0.064                  0.9931934        -118.925
0.068                  0.9925607       -122.9105
0.072                  0.9930421       -126.6507
0.076                  0.9945053       -130.1921
0.08                   0.9966786       -133.5738
0.084                  0.9991993       -136.8249
0.088                   1.001672       -139.9637
0.092                    1.00373       -142.9984
0.096                   1.005087       -145.9285
0.1                     1.005577       -148.7476
0.104                    1.00517       -151.4466
0.108                   1.003975       -154.0162
0.112                   1.002215       -156.4507
0.116                   1.000189        -158.749
0.12                   0.9982282        -160.917
0.124                  0.9966417        -162.967
0.128                  0.9956672       -164.9171
0.132                  0.9954365       -166.7893
0.136                  0.9959566       -168.6061
0.14                   0.9971137       -170.3883
0.144                  0.9986957       -172.1518
0.148                    1.00043       -173.9062
0.152                   1.002032       -175.6541
0.156                   1.003246       -177.3915
0.16                    1.003892       -179.1094
0.164                   1.003884        179.2044
0.168                   1.003245        177.5625
0.172                   1.002099        175.9761
0.176                    1.00065        174.4525
0.18                   0.9991433        172.9937
0.184                    0.99783         171.596
0.188                  0.9969221        170.2504
0.192                  0.9965598        168.9438
0.196                  0.9967889         167.661
0.2                     0.997555        166.3873
0.204                  0.9987159        165.1104
0.208                   1.000067        163.8228
0.212                   1.001377         162.522
0.216                   1.002429        161.2114
0.22                    1.003052        159.8986
0.224                   1.003152        158.5944
0.228                   1.002722        157.3105
0.232                   1.001845        156.0579
0.236                   1.000676        154.8447
0.24                   0.9994152        153.6745
0.244                  0.9982777        152.5464
0.248                  0.9974531        151.4544
0.252                  0.9970757        150.3885
0.256                  0.9972022        149.3367
0.26                   0.9978021        148.2866
0.264                  0.9987652        147.2277
0.268                  0.9999215        146.1533
0.272                   1.001071        145.0608
0.276                   1.002017        143.9529
0.28                    1.002604         142.836
0.284                   1.002735          141.72
0.288                   1.002394        140.6155
0.292                   1.001645         139.533
0.296                   1.000618        138.4803
0.3                    0.9994928        137.4617
0.304                   0.998462        136.4769
0.308                  0.9977012        135.5211
0.312                  0.9973388         134.586
0.316                  0.9974335        133.6609
0.32                   0.9979645        132.7346
0.324                  0.9988362        131.7975
0.328                  0.9998946        130.8431
0.332                   1.000956        129.8692
0.336                   1.001838        128.8778
0.34                    1.002391        127.8751
0.344                   1.002521        126.8702
0.348                    1.00221        125.8732
0.352                   1.001513        124.8942
0.356                   1.000553        123.9407
0.36                    0.999496        123.0171
0.364                  0.9985251        122.1234
0.368                  0.9978087        121.2552
0.372                    0.99747        120.4047
0.376                  0.9975666        119.5619
0.38                   0.9980797        118.7162
0.384                  0.9989183        117.8583
0.388                  0.9999354        116.9822
0.392                   1.000954        116.0856
0.396                   1.001797        115.1706
0.4                      1.00232        114.2434
0.404                   1.002433        113.3126
0.408                   1.002117        112.3884
0.412                   1.001429        111.4804
0.416                   1.000489        110.5962
0.42                   0.9994589          109.74
0.424                  0.9985198        108.9116
0.428                  0.9978354        108.1068
0.432                  0.9975258        107.3178
0.436                  0.9976449        106.5347
0.44                   0.9981718        105.7472
0.444                  0.9990141        104.9462
0.448                   1.000024        104.1258
0.452                   1.001025        103.2841
0.456                   1.001842        102.4234
0.46                    1.002333        101.5499
0.464                   1.002412        100.6725
0.468                   1.002064        99.80149
0.472                   1.001349        98.94635
0.476                   1.000391        98.11456
0.48                   0.9993565        97.31003
0.484                  0.9984259        96.53249
0.488                  0.9977628        95.77742
0.492                  0.9974843        95.03675
0.496                  0.9976397        94.30037
0.5                    0.9982023        93.55784
0.504                  0.9990734        92.80026
0.508                     1.0001        92.02195
0.512                   1.001101        91.22126
0.516                     1.0019        90.40095
0.52                    1.002357        89.56768
0.524                   1.002389        88.73072
0.528                   1.001989        87.90049
0.532                   1.001225        87.08667
0.536                   1.000228        86.29661
0.54                   0.9991717        85.53398
0.544                  0.9982415        84.79804
0.548                  0.9976018        84.08375
0.552                  0.9973667        83.38255
0.556                  0.9975796        82.68388
0.56                   0.9982042        81.97706
0.564                  0.9991314        81.25322
0.568                   1.000198        80.50687
0.572                   1.001217        79.73687
0.576                   1.002007        78.94656
0.58                    1.002429        78.14322
0.584                   1.002405        77.33671
0.588                   1.001938        76.53788
0.592                   1.001105         75.7566
0.596                    1.00005        75.00014
0.6                    0.9989587        74.27181
0.604                  0.9980221        73.57027
0.608                  0.9974072        72.88975
0.612                   0.997225        72.22096
0.616                  0.9975102        71.55272
0.62                   0.9982145        70.87401
0.624                  0.9992151        70.17591
0.628                   1.000336        69.45325
0.632                   1.001378        68.70545
0.636                   1.002157        67.93666
0.64                    1.002533        67.15497
0.644                   1.002436        66.37105
0.648                   1.001878        65.59624
0.652                   1.000955        64.84074
0.656                   0.999824        64.11166
0.66                    0.998684        63.41183
0.664                  0.9977363        62.73917
0.668                  0.9971504        62.08697
0.672                  0.9970334        61.44496
0.676                  0.9974093        60.80123
0.68                   0.9982143        60.14427
0.684                  0.9993082        59.46511
0.688                   1.000498        58.75895
0.692                   1.001573        58.02598
0.696                   1.002341        57.27128
0.7                     1.002664        56.50402
0.704                   1.002481        55.73574
0.708                   1.001818        54.97851
0.712                   1.000787        54.24277
0.716                  0.9995673        53.53549
0.72                   0.9983725        52.85893
0.724                   0.997415        52.21004
0.728                  0.9968675        51.58095
0.732                  0.9968315         50.9603
0.736                  0.9973175        50.33519
0.74                   0.9982432        49.69362
0.744                  0.9994466        49.02663
0.748                   1.000715        48.32987
0.752                   1.001824        47.60444
0.756                   1.002574        46.85664
0.76                    1.002827        46.09682
0.764                   1.002534        45.33768
0.768                    1.00174        44.59203
0.772                   1.000577        43.87064
0.776                  0.9992474        43.18026
0.78                   0.9979846         42.5224
0.784                  0.9970132        41.89289
0.788                  0.9965088        41.28248
0.792                  0.9965661        40.67843
0.796                  0.9971794        40.06681
0.8                    0.9982435        39.43503
0.804                  0.9995718        38.77412
0.808                   1.000929        38.08036
0.812                   1.002073        37.35595
0.816                   1.002797        36.60857
0.82                    1.002967        35.85002
0.824                   1.002546        35.09423
0.828                   1.001599        34.35493
0.832                   1.000288        33.64315
0.836                  0.9988388        32.96538
0.84                    0.997507        32.32221
0.844                  0.9965314        31.70805
0.848                  0.9960902        31.11206
0.852                  0.9962686        30.51992
0.856                  0.9970413        29.91646
0.86                   0.9982758        29.28845
0.864                  0.9997562        28.62702
0.868                   1.001221        27.92921
0.872                   1.002408        27.19854
0.876                   1.003103        26.44431
0.88                    1.003177        25.68002
0.884                   1.002608        24.92105
0.888                   1.001487        24.18209
0.892                   1.000005        23.47455
0.896                  0.9984185         22.8045
0.9                    0.9970094        22.17143
0.904                  0.9960311        21.56815
0.908                  0.9956643        20.98189
0.912                  0.9959824        20.39652
0.916                  0.9969364        19.79552
0.92                   0.9983622        19.16496
0.924                    1.00001        18.49613
0.928                   1.001587        17.78701
0.932                   1.002811        17.04269
0.936                   1.003459        16.27439
0.94                    1.003408        15.49755
0.944                   1.002655        14.72923
0.948                   1.001321        13.98521
0.952                  0.9996329        13.27726
0.956                  0.9978837        12.61095
0.96                   0.9963835        11.98445
0.964                  0.9954037        11.38861
0.968                  0.9951268        10.80843
0.972                  0.9956119        10.22565
0.976                  0.9967817        9.622143
0.98                   0.9984345        8.983221
0.984                    1.00028         8.30036
0.988                   1.001992        7.572704
0.992                   1.003262        6.807169
0.996                   1.003859         6.01721
1                       1.003665        5.220539
1.004                   1.002701        4.436147
1.008                   1.001124          3.6811
1.012                  0.9992022        2.967558
1.016                  0.9972701        2.300481
1.02                   0.9956719        1.676473
1.024                  0.9946988        1.084081
1.028                  0.9945356       0.5056407
1.032                  0.9952233     -0.07959189
1.036                  0.9966508      -0.6916203
1.04                   0.9985721       -1.345986
1.044                    1.00065       -2.050921
1.048                   1.002515       -2.805912
1.052                   1.003831       -3.601838
1.056                   1.004356       -4.422582
1.06                    1.003981       -5.247739
1.064                   1.002753       -6.056009
1.068                   1.000873       -6.828773
1.072                  0.9986574       -7.553363
1.076                  0.9964918       -8.225533
1.08                   0.9947618       -8.850495
1.084                  0.9937831       -9.442481
1.088                  0.9937431       -10.02236
1.092                   0.994663       -10.61391
1.096                  0.9963909       -11.23942
1.1                    0.9986279       -11.91547
1.104                    1.00098       -12.64996
1.108                   1.003027       -13.44082
1.112                   1.004399       -14.27629
1.116                   1.004839       -15.13706
1.12                    1.004248       -15.99949
1.124                   1.002706       -16.83952
1.128                   1.000462       -17.63654
1.132                  0.9978957       -18.37725
1.136                  0.9954534       -19.05816
1.14                   0.9935719       -19.68677
1.144                  0.9925982       -20.28069
1.148                  0.9927242       -20.86475
1.152                  0.9939469       -21.46652
1.156                  0.9960653       -22.11113
1.16                   0.9987141       -22.81662
1.164                   1.001429       -23.59058
1.168                   1.003726       -24.42896
1.172                   1.005191       -25.31684
1.176                   1.005544       -26.23101
1.18                    1.004699       -27.14376
1.184                   1.002771        -28.0274
1.188                   1.000073       -28.85881
1.192                  0.9970575       -29.62359
1.196                  0.9942512       -30.31904
1.2                    0.9921568       -30.95533
1.204                  0.9911647       -31.55424
1.208                  0.9914757       -32.14566
1.212                  0.9930595       -32.76205
1.216                  0.9956547       -33.43239
1.22                   0.9988132       -34.17662
1.224                    1.00198       -35.00214
1.228                   1.004589       -35.90257
1.232                   1.006163       -36.85904
1.236                   1.006395       -37.84338
1.24                    1.005204       -38.82263
1.244                   1.002754       -39.76424
1.248                  0.9994319       -40.64148
1.252                  0.9957925       -41.43823
1.256                  0.9924658       -42.15247
1.26                   0.9900485       -42.79759
1.264                   0.988994       -43.40092
1.268                  0.9895229       -43.99913
1.272                  0.9915742       -44.63155
1.276                  0.9948098        -45.3326
1.28                   0.9986719       -46.12534
1.284                   1.002482       -47.01723
1.288                   1.005558       -47.99918
1.292                   1.007333       -49.04727
1.296                   1.007451       -50.12674
1.3                     1.005834       -51.19741
1.304                   1.002697       -52.21992
1.308                  0.9985291       -53.16206
1.312                   0.994018       -54.00468
1.316                  0.9899433       -54.74599
1.32                     0.98704       -55.40344
1.324                  0.9858612       -56.01181
1.328                  0.9866665       -56.61757
1.332                   0.989362       -57.27023
1.336                  0.9935073       -58.01263
1.34                   0.9983897       -58.87287
1.344                   1.003151       -59.85927
1.348                   1.006933       -60.95935
1.352                   1.009028       -62.14238
1.356                   1.008993       -63.36425
1.36                    1.006733       -64.57423
1.364                   1.002526        -65.7223
1.368                  0.9969989       -66.76713
1.372                  0.9910368       -67.68355
1.376                  0.9856517       -68.46861
1.38                   0.9818063       -69.14466
1.384                  0.9802336       -69.75741
1.388                  0.9812832       -70.36886
1.392                  0.9848357       -71.04551
1.396                  0.9903089       -71.84505
1.4                    0.9967547       -72.80536
1.404                   1.003025       -73.93781
1.408                   1.007969       -75.22616
1.412                   1.010624       -76.63005
1.416                   1.010374       -78.09134
1.42                    1.007058       -79.54226
1.424                   1.001016       -80.91469
1.428                   0.993072       -82.15014
1.432                  0.9844299       -83.21032
1.436                  0.9765082       -84.08677
1.44                   0.9707029       -84.80738
1.444                  0.9681222       -85.43615
1.448                  0.9693449       -86.06414
1.452                   0.974269       -86.79226
1.456                  0.9820967       -87.71058
1.46                   0.9914616       -88.88044
1.464                   1.000665       -90.32422
1.468                   1.007959       -92.02397
1.472                   1.011822       -93.92639
1.476                    1.01119       -95.95144
1.48                    1.005631       -98.00221
1.484                  0.9954445       -99.97577
1.488                  0.9816839       -101.7756
1.492                   0.966088       -103.3274
1.496                  0.9508922       -104.5975
1.5                    0.9385055        -105.612
1.504                  0.9310648       -106.4688
1.508                   0.929942       -107.3323
1.512                  0.9353397       -108.4074
1.516                  0.9461196       -109.8973
1.52                   0.9599275        -111.964
1.524                  0.9735492       -114.7065
1.528                  0.9833655       -118.1599
1.532                   0.985776       -122.3098
1.536                  0.9775288       -127.1105
1.54                   0.9559442       -132.5024
1.544                  0.9190495        -138.424
1.548                  0.8656486       -144.8215
1.552                  0.7953451       -151.6565
1.556                    0.70853       -158.9172
1.56                    0.606348       -166.6397
1.564                  0.4906532       -174.9659
1.568                  0.3640027        175.6671
1.572                  0.2299318        163.6496
1.576                 0.09657276        138.0058
1.58                  0.07740255        19.99122
1.584                  0.2076961       -13.07042
1.588                  0.3422919       -25.94903
1.592                  0.4701337        -35.5831
1.596                  0.5874344       -44.04434
1.6                    0.6915332       -51.86204
1.604                  0.7804858        -59.2066
1.608                  0.8530529       -66.12583
1.612                  0.9087415       -72.61344
1.616                  0.9478407       -78.63442
1.62                   0.9714358       -84.13674
1.624                  0.9813921       -89.05956
1.628                  0.9802926       -93.34203
1.632                  0.9713151       -96.93539
1.636                   0.958024       -99.81924
1.64                   0.9440583       -102.0204
1.644                  0.9327196       -103.6282
1.648                  0.9265171       -104.7969
1.652                  0.9267853       -105.7269
1.656                  0.9335189       -106.6267
1.66                   0.9454994       -107.6702
1.664                  0.9606713       -108.9667
1.668                  0.9766314       -110.5529
1.672                  0.9910851       -112.4033
1.676                    1.00219       -114.4483
1.68                    1.008763       -116.5936
1.684                   1.010366       -118.7361
1.688                   1.007299       -120.7766
1.692                   1.000514       -122.6306
1.696                  0.9914577       -124.2384
1.7                    0.9818566       -125.5737
1.704                  0.9734489       -126.6498
1.708                  0.9677027       -127.5201
1.712                  0.9655658       -128.2697
1.716                  0.9673104       -128.9995
1.72                   0.9725116       -129.8052
1.724                  0.9801696       -130.7591
1.728                  0.9889331       -131.8989
1.732                   0.997361       -133.2248
1.736                   1.004168       -134.7057
1.74                    1.008409       -136.2874
1.744                   1.009599       -137.9032
1.748                    1.00775       -139.4841
1.752                   1.003346       -140.9678
1.756                  0.9972541       -142.3074
1.76                   0.9905863       -143.4778
1.764                  0.9845151       -144.4807
1.768                  0.9800818       -145.3452
1.772                  0.9780176       -146.1231
1.776                  0.9786195       -146.8793
1.78                   0.9817099       -147.6793
1.784                  0.9866892       -148.5764
1.788                  0.9926652       -149.6029
1.792                  0.9986241        -150.766
1.796                   1.003609        -152.049
1.8                     1.006869       -153.4168
1.804                   1.007965       -154.8222
1.808                   1.006823       -156.2138
1.812                   1.003727       -157.5438
1.816                  0.9992661       -158.7742
1.82                   0.9942386        -159.883
1.824                  0.9895164       -160.8677
1.828                  0.9859016       -161.7464
1.832                  0.9839894       -162.5545
1.836                  0.9840666        -163.339
1.84                   0.9860686       -164.1488
1.844                  0.9896021       -165.0262
1.848                  0.9940286       -165.9989
1.852                  0.9985854       -167.0765
1.856                   1.002522         -168.25
1.86                     1.00522       -169.4951
1.864                   1.006288       -170.7767
1.868                   1.005612       -172.0547
1.872                   1.003364       -173.2908
1.876                   0.999964       -174.4535
1.88                   0.9960144        -175.523
1.884                  0.9921949       -176.4948
1.888                  0.9891507       -177.3804
1.892                  0.9873825       -178.2055
1.896                  0.9871618       -179.0055
1.9                    0.9884887       -179.8189
1.904                  0.9910984        179.3199
1.908                   0.994517        178.3864
1.912                  0.9981526        177.3701
1.916                   1.001398        176.2752
1.92                    1.003735        175.1189
1.924                   1.004809        173.9279
1.928                   1.004485        172.7339
1.932                   1.002857        171.5686
1.936                    1.00023        170.4586
1.94                   0.9970657        169.4219
1.944                  0.9939049        168.4643
1.948                  0.9912778        167.5789
1.952                  0.9896146        166.7471
1.956                   0.989173        165.9415
1.96                   0.9899968        165.1315
1.964                  0.9919147        164.2884
1.968                  0.9945755        163.3905
1.972                  0.9975152        162.4268
1.976                    1.00024         161.398
1.98                    1.002306        160.3157
1.984                   1.003395        159.2004
1.988                   1.003355        158.0771
1.992                    1.00222        156.9721
1.996                   1.000204        155.9081
2                      0.9976568        154.9017
2.004                   0.995009        153.9597
2.008                  0.9926985         153.079
2.012                   0.991099        152.2465
2.016                  0.9904568        151.4416
2.02                   0.9908523        150.6396
2.024                  0.9921905        149.8167
2.028                  0.9942215        148.9534
2.032                  0.9965892        148.0383
2.036                   0.998893        147.0692
2.04                    1.000757        146.0531
2.044                   1.001886        145.0046
2.048                   1.002116        143.9434
2.052                   1.001427        142.8906
2.056                  0.9999508        141.8662
2.06                   0.9979387        140.8851
2.064                  0.9957236        139.9558
2.068                  0.9936645        139.0783
2.072                  0.9920863        138.2446
2.076                  0.9912286          137.44
2.08                   0.9912076        136.6453
2.084                  0.9919995        135.8409
2.088                  0.9934493        135.0092
2.092                  0.9952999        134.1382
2.096                  0.9972378        133.2228
2.1                    0.9989445        132.2654
2.104                   1.000148        131.2752
2.108                   1.000664        130.2665
2.112                   1.000417         129.256
2.116                  0.9994557        128.2606
2.12                   0.9979345        127.2947
2.124                  0.9960926        126.3682
2.128                  0.9942132        125.4848
2.132                  0.9925799        124.6416
2.136                  0.9914317        123.8298
2.14                    0.990927        123.0358
2.144                  0.9911206        122.2436
2.148                  0.9919564        121.4375
2.152                    0.99328        120.6042
2.156                  0.9948651        119.7354
2.16                   0.9964496        118.8284
2.164                  0.9977766        117.8863
2.168                  0.9986322        116.9175
2.172                   0.998875        115.9344
2.176                  0.9984562         114.951
2.18                   0.9974238        113.9815
2.184                   0.995915        113.0379
2.188                  0.9941361        112.1284
2.192                  0.9923322        111.2563
2.196                  0.9907524        110.4192
2.2                    0.9896121        109.6094
2.204                  0.9890621        108.8151
2.208                  0.9891657        108.0217
2.212                  0.9898875        107.2143
2.216                  0.9910992        106.3798
2.22                   0.9925969        105.5088
2.224                  0.9941302         104.597
2.228                  0.9954377        103.6458
2.232                  0.9962846        102.6622
2.236                  0.9964962        101.6576
2.24                   0.9959841        100.6463
2.244                  0.9947611        99.64392
2.248                  0.9929434         98.6648
2.252                  0.9907381        97.72015
2.256                  0.9884182        96.81611
2.26                    0.986285        95.95242
2.264                  0.9846245        95.12191
2.268                  0.9836623        94.31111
2.272                  0.9835237        93.50184
2.276                  0.9842088        92.67379
2.28                   0.9855835        91.80759
2.284                  0.9873933        90.88797
2.288                  0.9892967        89.90621
2.292                  0.9909127         88.8617
2.296                  0.9918772        87.76226
2.3                    0.9919001        86.62327
2.304                  0.9908129         85.4657
2.308                  0.9886029        84.31326
2.312                  0.9854263        83.18904
2.316                  0.9815977         82.1117
2.32                   0.9775545        81.09198
2.324                  0.9737958        80.12982
2.328                  0.9708054        79.21277
2.332                  0.9689671         78.3165
2.336                  0.9684878         77.4075
2.34                   0.9693437        76.44799
2.344                  0.9712639        75.40191
2.348                  0.9737549        74.24104
2.352                  0.9761668        72.94965