! TOUCHSTONE file generated by CST MICROWAVE STUDIO
! Date and time: Tue Jun 14 14:31:20 2022
! Project name: AppElm_antenne_patch_FR4.cst
! Parameters = {L=45; W=58.5; e=0.035; h=1.6; lambda=0.190476; ls=144; w0=2.54; w1=0.847; ws=120; y0=18; y1=23.8}
! Header version: 2018
! Port assignment regex: !\s*Touchstone port\s*([0-9]+)\s*=\s*(CST MWS port|CST DS port)\s*([0-9]+|Zmin|Zmax)\s*\(\"(.*)\"\)(\s*mode\s*([0-9]+))?.*
! Touchstone port assignment:
! Touchstone port 1 = CST MWS port 1 ("")
# GHz S MA R 50
0                      0.9876221              -0
0.004                   0.988358       -9.979804
0.008                  0.9904643       -19.86648
0.012                  0.9936522       -29.57171
0.016                    0.99749       -39.01604
0.02                    1.001468       -48.13142
0.024                   1.005072       -56.86241
0.028                   1.007852       -65.16604
0.032                   1.009482       -73.01112
0.036                   1.009798       -80.37729
0.04                    1.008813       -87.25435
0.044                   1.006716       -93.64201
0.048                   1.003838       -99.54993
0.052                   1.000606       -104.9979
0.056                  0.9974839       -110.0157
0.06                   0.9949031       -114.6421
0.064                  0.9932037       -118.9232
0.068                  0.9925838        -122.909
0.072                  0.9930751       -126.6499
0.076                  0.9945435       -130.1921
0.08                   0.9967161       -133.5747
0.084                  0.9992298       -136.8266
0.088                    1.00169       -139.9661
0.092                   1.003731       -143.0012
0.096                    1.00507       -145.9313
0.1                     1.005542       -148.7501
0.104                   1.005121       -151.4483
0.108                   1.003916        -154.017
0.112                   1.002153       -156.4502
0.116                   1.000132       -158.7474
0.12                   0.9981842       -160.9144
0.124                  0.9966159       -162.9637
0.128                  0.9956624       -164.9136
0.132                  0.9954528        -166.786
0.136                  0.9959908       -168.6035
0.14                   0.9971604       -170.3866
0.144                  0.9987472       -172.1513
0.148                   1.000479       -173.9069
0.152                   1.002069       -175.6557
0.156                   1.003267       -177.3938
0.16                    1.003893       -179.1119
0.164                   1.003866        179.2021
0.168                   1.003211        177.5609
0.172                   1.002056        175.9755
0.176                   1.000604        174.4529
0.18                   0.9991032        172.9951
0.184                  0.9978028        171.5984
0.188                   0.996913        170.2533
0.192                  0.9965711        168.9468
0.196                  0.9968191        167.6635
0.2                       0.9976        166.3889
0.204                  0.9987686        165.1109
0.208                   1.000119        163.8221
0.212                   1.001421        162.5203
0.216                   1.002457        161.2088
0.22                     1.00306        159.8956
0.224                   1.003139        158.5915
0.228                    1.00269        157.3082
0.232                     1.0018        156.0565
0.236                   1.000625        154.8444
0.24                   0.9993669        153.6754
0.244                  0.9982401        152.5484
0.248                  0.9974328         151.457
0.252                  0.9970761        150.3913
0.256                  0.9972232        149.3392
0.26                   0.9978401        148.2884
0.264                  0.9988137        147.2285
0.268                   0.999972        146.1529
0.272                   1.001115        145.0592
0.276                   1.002047        143.9503
0.28                    1.002614         142.833
0.284                   1.002723        141.7169
0.288                   1.002362        140.6129
0.292                   1.001597        139.5313
0.296                   1.000563        138.4798
0.3                    0.9994382        137.4624
0.304                  0.9984169        136.4787
0.308                  0.9976729        135.5238
0.312                   0.997332        134.5891
0.316                  0.9974488        133.6639
0.32                   0.9979991        132.7369
0.324                  0.9988834        131.7988
0.328                  0.9999466        130.8432
0.332                   1.001003         129.868
0.336                   1.001873        128.8756
0.34                    1.002406        127.8723
0.344                   1.002515        126.8672
0.348                   1.002183        125.8706
0.352                    1.00147        124.8924
0.356                   1.000501        123.9401
0.36                    0.999444        123.0178
0.364                  0.9984824        122.1252
0.368                  0.9977832        121.2579
0.372                  0.9974664        120.4079
0.376                  0.9975859        119.5649
0.38                   0.9981194        118.7185
0.384                   0.998972        117.8595
0.388                  0.9999944        116.9821
0.392                   1.001008        116.0841
0.396                   1.001838         115.168
0.4                      1.00234          114.24
0.404                    1.00243         113.309
0.408                   1.002091        112.3851
0.412                   1.001384         111.478
0.416                   1.000432         110.595
0.42                   0.9994002        109.7401
0.424                  0.9984689        108.9129
0.428                  0.9978006        108.1091
0.432                  0.9975124        107.3207
0.436                  0.9976548        106.5376
0.44                   0.9982026        105.7494
0.444                  0.9990595        104.9474
0.448                   1.000075        104.1257
0.452                   1.001072        103.2826
0.456                   1.001876        102.4208
0.46                    1.002347        101.5466
0.464                   1.002401        100.6691
0.468                    1.00203        99.79842
0.472                   1.001296        98.94418
0.476                   1.000327        98.11367
0.48                   0.9992912         97.3106
0.484                  0.9983699        96.53443
0.488                   0.997725        95.78041
0.492                  0.9974706        95.04029
0.496                  0.9976522        94.30386
0.5                    0.9982385        93.56065
0.504                  0.9991267        92.80195
0.508                   1.000161        92.02218
0.512                   1.001158           91.22
0.516                   1.001945        90.39842
0.52                     1.00238        89.56428
0.524                   1.002388        88.72701
0.528                   1.001963        87.89706
0.532                   1.001178         87.0841
0.536                   1.000168         86.2953
0.54                   0.9991093         85.5341
0.544                  0.9981874        84.79954
0.548                  0.9975653        84.08629
0.552                   0.997354        83.38562
0.556                  0.9975924        82.68685
0.56                   0.9982399        81.97933
0.564                   0.999183        81.25429
0.568                   1.000256        80.50644
0.572                   1.001269         79.7349
0.576                   1.002044        78.94331
0.58                    1.002441        78.13912
0.584                    1.00239        77.33238
0.588                   1.001894        76.53397
0.592                   1.001038        75.75373
0.596                  0.9999701        74.99874
0.6                    0.9988758        74.27207
0.604                  0.9979484        73.57213
0.608                  0.9973528        72.89284
0.612                  0.9971968        72.22472
0.616                  0.9975104         71.5565
0.62                   0.9982406        70.87713
0.624                  0.9992598        70.17782
0.628                   1.000388        69.45362
0.632                   1.001427        68.70424
0.636                   1.002191        67.93411
0.64                    1.002544        67.15156
0.644                   1.002419        66.36737
0.648                   1.001834        65.59302
0.652                   1.000888        64.83858
0.656                   0.999745        64.11101
0.66                   0.9986043        63.41285
0.664                  0.9976682        62.74177
0.668                  0.9971043        62.09076
0.672                   0.997016        61.44933
0.676                  0.9974225        60.80544
0.68                   0.9982547         60.1476
0.684                  0.9993674          59.467
0.688                   1.000564        58.75909
0.692                   1.001633        58.02431
0.696                   1.002383        57.26811
0.7                     1.002679        56.49986
0.704                   1.002463        55.73132
0.708                   1.001768        54.97457
0.712                   1.000712           54.24
0.716                  0.9994772        53.53438
0.72                     0.99828        52.85969
0.724                  0.9973335        52.21255
0.728                  0.9968083        51.58482
0.732                  0.9968018        50.96484
0.736                  0.9973195        50.33965
0.74                   0.9982731        49.69726
0.744                  0.9994955        49.02884
0.748                   1.000771        48.33033
0.752                   1.001873        47.60315
0.756                   1.002603         46.8539
0.76                    1.002828        46.09324
0.764                   1.002502          45.334
0.768                   1.001676        44.58905
0.772                   1.000489        43.86907
0.776                  0.9991466         43.1806
0.78                   0.9978856        42.52482
0.784                  0.9969305        41.89721
0.788                  0.9964545         41.2882
0.792                  0.9965476        40.68479
0.796                  0.9971984        40.07296
0.8                    0.9982954        39.44011
0.804                  0.9996465        38.77748
0.808                   1.001012        38.08165
0.812                   1.002149        37.35518
0.816                   1.002853        36.60608
0.82                    1.002992        35.84644
0.824                   1.002536         35.0904
0.828                   1.001555         34.3517
0.832                   1.000217        33.64131
0.836                   0.998754        32.96543
0.84                   0.9974233        32.32433
0.844                   0.996464        31.71206
0.848                  0.9960517        31.11739
0.852                  0.9962664        30.52576
0.856                  0.9970761         29.9219
0.86                    0.998342        29.29263
0.864                  0.9998422        28.62927
0.868                   1.001311        27.92922
0.872                   1.002486        27.19638
0.876                   1.003154        26.44042
0.88                    1.003191        25.67516
0.884                    1.00258        24.91616
0.888                    1.00142        24.17815
0.892                  0.9999073        23.47239
0.896                  0.9983062        22.80468
0.9                    0.9968996        22.17413
0.904                  0.9959412        21.57312
0.908                  0.9956085        20.98848
0.912                   0.995969        20.40382
0.916                  0.9969664        19.80248
0.92                   0.9984292        19.17062
0.924                   1.000101        18.49975
0.928                   1.001685        17.78824
0.932                   1.002899        17.04161
0.936                   1.003521        16.27147
0.94                    1.003432         15.4936
0.944                   1.002637        14.72526
0.948                   1.001265        13.98224
0.952                  0.9995492        13.27616
0.956                  0.9977885        12.61227
0.96                   0.9962958        11.98832
0.964                  0.9953417        11.39468
0.968                   0.995105        10.81592
0.972                   0.995638        10.23352
0.976                  0.9968551        9.629215
0.98                   0.9985467        8.988446
0.984                   1.000416         8.30298
0.988                   1.002131        7.572387
0.992                   1.003383        6.804068
0.996                   1.003945        6.011935
1                       1.003703        5.214059
1.004                   1.002687        4.429635
1.008                   1.001062        3.675746
1.012                  0.9991045        2.964364
1.016                  0.9971552        2.300091
1.02                   0.9955613        1.679043
1.024                  0.9946132        1.089241
1.028                   0.994491       0.5125519
1.032                  0.9952287     -0.07209029
1.036                  0.9967057      -0.6847927
1.04                   0.9986667       -1.340966
1.044                   1.000767       -2.048506
1.048                   1.002634       -2.806418
1.052                    1.00393       -3.605052
1.056                   1.004415       -4.427791
1.06                    1.003989       -5.253848
1.064                   1.002707       -6.061716
1.068                   1.000778       -6.832782
1.072                  0.9985297       -7.554614
1.076                  0.9963535       -8.223374
1.08                   0.9946376       -8.844894
1.084                  0.9936968       -9.433956
1.088                  0.9937126       -10.01201
1.092                  0.9946971       -10.60312
1.096                  0.9964883       -11.22967
1.1                    0.9987761       -11.90815
1.104                   1.001158         -12.646
1.108                    1.00321       -13.44054
1.112                   1.004562       -14.27948
1.116                   1.004958       -15.14293
1.12                    1.004308       -16.00678
1.124                   1.002704       -16.84671
1.128                   1.000404       -17.64221
1.132                  0.9977988       -18.38017
1.136                  0.9953416       -19.05763
1.14                   0.9934724        -19.6827
1.144                  0.9925367       -20.27369
1.148                  0.9927198       -20.85601
1.152                  0.9940083       -21.45761
1.156                  0.9961892       -22.10371
1.16                   0.9988855        -22.8121
1.164                   1.001623        -23.5899
1.168                   1.003914       -24.43241
1.172                   1.005343         -25.324
1.176                   1.005636       -26.24081
1.18                    1.004715       -27.15468
1.184                   1.002708       -28.03763
1.188                  0.9999406       -28.86657
1.192                  0.9968781       -29.62746
1.196                  0.9940546       -30.31815
1.2                    0.9919775       -30.94959
1.204                  0.9910344       -31.54442
1.208                  0.9914186       -32.13321
1.212                  0.9930872       -32.74891
1.216                  0.9957643       -33.42054
1.22                   0.9989883       -34.16784
1.224                   1.002192       -34.99758
1.228                   1.004805       -35.90265
1.232                   1.006348       -36.86335
1.236                   1.006522       -37.85077
1.24                    1.005255       -38.83138
1.244                   1.002725       -39.77234
1.248                  0.9993353       -40.64698
1.252                   0.995653       -41.43955
1.256                  0.9923185       -42.14872
1.26                   0.9899324       -42.78884
1.264                  0.9889456       -43.38818
1.268                  0.9895682       -43.98428
1.272                  0.9917241       -44.61697
1.276                  0.9950575       -45.32076
1.28                   0.9989939       -46.11829
1.284                   1.002841       -47.01635
1.288                   1.005911       -48.00485
1.292                   1.007636       -49.05889
1.296                   1.007667        -50.1428
1.3                      1.00594       -51.21572
1.304                   1.002686       -52.23788
1.308                   0.998413        -53.1771
1.312                  0.9938271       -54.01464
1.316                  0.9897207       -54.74955
1.32                   0.9868343       -55.40038
1.324                  0.9857186       -56.00317
1.328                  0.9866218       -56.60547
1.332                  0.9894317       -57.25743
1.336                   0.993686       -58.00208
1.34                   0.9986518       -58.86707
1.344                   1.003454       -59.85981
1.348                   1.007226       -60.96671
1.352                    1.00926        -62.1558
1.356                   1.009121       -63.38188
1.36                    1.006731       -64.59333
1.364                    1.00239       -65.73965
1.368                   0.996747       -66.77945
1.372                  0.9907112       -67.68814
1.376                  0.9853121       -68.46383
1.38                   0.9815209       -69.13039
1.384                  0.9800672       -69.73527
1.388                  0.9812854         -70.342
1.392                  0.9850313       -71.01805
1.396                  0.9906924       -71.82141
1.4                     0.997292       -72.78931
1.404                   1.003659       -73.93196
1.408                   1.008627       -75.23159
1.412                   1.011233       -76.64621
1.416                   1.010869       -78.11621
1.42                    1.007393       -79.57261
1.424                   1.001173       -80.94649
1.428                  0.9930622       -82.17912
1.432                  0.9842976       -83.23264
1.436                  0.9763233       -84.09988
1.44                     0.97055       -84.81066
1.444                  0.9680854        -85.4313
1.448                  0.9694902       -86.05517
1.452                  0.9746292       -86.78472
1.456                  0.9826628       -87.71043
1.46                   0.9921827       -88.89287
1.464                   1.001456       -90.35284
1.468                   1.008711       -92.07026
1.472                   1.012419       -93.98959
1.476                   1.011526       -96.02859
1.48                    1.005622       -98.08838
1.484                  0.9950409       -100.0643
1.488                  0.9808845       -101.8587
1.492                  0.9649456       -103.3966
1.496                  0.9495141       -104.6452
1.5                     0.937045       -105.6332
1.504                  0.9297003       -106.4626
1.508                  0.9288462       -107.3031
1.512                  0.9346457       -108.3645
1.516                  0.9458947       -109.8526
1.52                   0.9601622       -111.9301
1.524                  0.9741633        -114.694
1.528                  0.9842242       -118.1768
1.532                  0.9867103       -122.3614
1.536                  0.9783552          -127.2
1.54                   0.9564814       -132.6316
1.544                   0.919131       -138.5939
1.548                  0.8651331       -145.0333
1.552                  0.7941241       -151.9124
1.556                  0.7065327       -159.2214
1.56                   0.6035464       -167.0014
1.564                  0.4870671       -175.4054
1.568                  0.3597125        175.0963
1.572                  0.2251394        162.7513
1.576                 0.09234416        135.1771
1.58                  0.08309158        17.66255
1.584                  0.2142787        -13.4853
1.588                  0.3489335        -26.2552
1.592                   0.476626        -35.8874
1.596                  0.5935855        -44.3608
1.6                    0.6971584       -52.19094
1.604                   0.785416       -59.54498
1.608                  0.8571436       -66.46947
1.612                   0.911882       -72.95728
1.616                  0.9499613       -78.97246
1.62                   0.9725161       -84.46202
1.624                  0.9814669       -89.36409
1.628                  0.9794563       -93.61696
1.632                  0.9697227       -97.17165
1.636                  0.9558858       -100.0088
1.64                   0.9416251       -102.1578
1.644                  0.9302567       -103.7129
1.648                  0.9242682       -104.8344
1.652                  0.9249358       -105.7281
1.656                  0.9321685       -106.6061
1.66                    0.944655       -107.6424
1.664                  0.9602607       -108.9435
1.668                  0.9765284       -110.5423
1.672                  0.9911402       -112.4088
1.676                   1.002257       -114.4696
1.68                    1.008716       -116.6278
1.684                   1.010118        -118.778
1.688                   1.006808       -120.8202
1.692                  0.9997852       -122.6695
1.696                   0.990542       -124.2667
1.7                    0.9808399       -125.5871
1.704                   0.972439       -126.6463
1.708                  0.9668092       -127.5006
1.712                  0.9648808       -128.2379
1.716                  0.9668905       -128.9612
1.72                   0.9723694       -129.7671
1.724                  0.9802734       -130.7272
1.728                  0.9892158       -131.8776
1.732                  0.9977342       -133.2166
1.736                   1.004537       -134.7106
1.74                    1.008688       -136.3037
1.744                   1.009722       -137.9276
1.748                   1.007679       -139.5123
1.752                   1.003075       -140.9952
1.756                  0.9968115       -142.3295
1.76                   0.9900248       -143.4911
1.764                  0.9839071       -144.4832
1.768                  0.9795051       -145.3368
1.772                  0.9775421       -146.1055
1.776                  0.9782949       -146.8558
1.78                   0.9815577       -147.6542
1.784                  0.9866999       -148.5539
1.788                  0.9928018       -149.5863
1.792                  0.9988312       -150.7574
1.796                   1.003822       -152.0491
1.8                     1.007027       -153.4246
1.804                   1.008018       -154.8356
1.808                   1.006741       -156.2299
1.812                   1.003502       -157.5591
1.816                  0.9989175       -158.7855
1.82                    0.993804       -159.8876
1.824                  0.9890493        -160.864
1.828                  0.9854613       -161.7341
1.832                  0.9836305       -162.5351
1.836                  0.9838302       -163.3148
1.84                   0.9859742        -164.123
1.844                  0.9896459       -165.0022
1.848                  0.9941845       -165.9794
1.852                  0.9988114       -167.0634
1.856                   1.002767       -168.2442
1.86                    1.005434        -169.496
1.864                   1.006429       -170.7827
1.868                   1.005652       -172.0637
1.872                   1.003292       -173.3001
1.876                  0.9997911       -174.4603
1.88                   0.9957679       -175.5252
1.884                  0.9919154       -176.4911
1.888                   0.988884       -177.3703
1.892                  0.9871724       -178.1899
1.896                  0.9870423       -178.9863
1.9                    0.9884773       -179.7984
1.904                   0.991194         179.339
1.908                  0.9947014        178.4019
1.912                  0.9983925        177.3803
1.916                   1.001653        176.2795
1.92                    1.003963        175.1175
1.924                   1.004975        173.9221
1.928                   1.004564        172.7255
1.932                    1.00284        171.5598
1.936                   1.000124        170.4517
1.94                   0.9968919        169.4188
1.944                  0.9936968        168.4662
1.948                   0.991074        167.5862
1.952                  0.9894524        166.7592
1.956                  0.9890822        165.9571
1.96                   0.9899948        165.1486
1.964                  0.9920031        164.3048
1.968                  0.9947408        163.4042
1.972                   0.997732        162.4364
1.976                   1.000475        161.4027
1.98                    1.002525        160.3158
1.984                   1.003567        159.1967
1.988                   1.003458        158.0712
1.992                   1.002245        156.9656
1.996                   1.000156        155.9031
2                      0.9975531        154.8996
2.004                  0.9948764        153.9618
2.008                  0.9925692        153.0856
2.012                  0.9910046        152.2571
2.016                  0.9904234        151.4551
2.02                    0.990895        150.6544
2.024                  0.9923122        149.8309
2.028                  0.9944118        148.9653
2.032                  0.9968267        148.0467
2.036                  0.9991497        147.0733
2.04                    1.001002         146.053
2.044                   1.002094         145.001
2.048                   1.002266        143.9374
2.052                   1.001511         142.884
2.056                  0.9999698        141.8604
2.06                   0.9979064        140.8816
2.064                  0.9956624        139.9556
2.068                   0.993601        139.0818
2.072                  0.9920475        138.2515
2.076                  0.9912373        137.4494
2.08                   0.9912778        136.6559
2.084                  0.9921353        135.8512
2.088                  0.9936431        135.0177
2.092                  0.9955351        134.1437
2.096                  0.9974911        133.2248
2.1                    0.9991904        132.2638
2.104                   1.000364        131.2705
2.108                   1.000831        130.2597
2.112                   1.000528        129.2484
2.116                  0.9995107        128.2536
2.12                   0.9979442        127.2896
2.124                  0.9960752        126.3658
2.128                  0.9941914        125.4855
2.132                  0.9925773        124.6454
2.136                  0.9914683        123.8358
2.14                   0.9910168         123.043
2.144                   0.991268        122.2507
2.148                  0.9921567        121.4431
2.152                  0.9935206        120.6073
2.156                  0.9951266        119.7354
2.16                   0.9967107        118.8251
2.164                  0.9980165          117.88
2.168                  0.9988344         116.909
2.172                    0.99903        115.9247
2.176                  0.9985626        114.9413
2.18                   0.9974882        113.9729
2.184                  0.9959507        113.0312
2.188                  0.9941611        112.1241
2.192                  0.9923658        111.2543
2.196                  0.9908119        110.4191
2.2                    0.9897103        109.6105
2.204                  0.9892052        108.8162
2.208                  0.9893517        108.0217
2.212                  0.9901077        107.2123
2.216                  0.9913387        106.3752
2.22                   0.9928381        105.5012
2.224                  0.9943551        104.5867
2.228                  0.9956312        103.6334
2.232                  0.9964363        102.6484
2.236                  0.9966026        101.6434
2.24                   0.9960479        100.6327
2.244                  0.9947919        99.63173
2.248                   0.992955        98.65458
2.252                  0.9907473        97.71212
2.256                  0.9884417         96.8101
2.26                   0.9863371        95.94788
2.264                  0.9847149        95.11802
2.268                  0.9837948        94.30692
2.272                  0.9836956        93.49634
2.276                  0.9844115        92.66616
2.28                   0.9858039        91.79726
2.284                  0.9876158        90.87469
2.288                  0.9895056        89.89009
2.292                  0.9910945        88.84315
2.296                  0.9920227        87.74194
2.3                    0.9920048        86.60197
2.304                  0.9908781         85.4442
2.308                  0.9886349        84.29225
2.312                  0.9854359        83.16896
2.316                  0.9815983        82.09274
2.32                   0.9775598          81.074
2.324                  0.9738179        80.11234
2.328                  0.9708527        79.19497
2.332                  0.9690422        78.29738
2.336                  0.9685867          77.386
2.34                   0.9694552        76.42313
2.344                  0.9713709        75.37298
2.348                  0.9738364        74.20769
2.352                  0.9761997        72.91196