! TOUCHSTONE file generated by CST MICROWAVE STUDIO
! Date and time: Tue Jun 14 14:31:21 2022
! Project name: AppElm_antenne_patch_FR4.cst
! Parameters = {L=45; W=58.5; e=0.035; h=1.6; lambda=0.190476; ls=150; w0=2.54; w1=0.847; ws=120; y0=18; y1=23.8}
! Header version: 2018
! Port assignment regex: !\s*Touchstone port\s*([0-9]+)\s*=\s*(CST MWS port|CST DS port)\s*([0-9]+|Zmin|Zmax)\s*\(\"(.*)\"\)(\s*mode\s*([0-9]+))?.*
! Touchstone port assignment:
! Touchstone port 1 = CST MWS port 1 ("")
# GHz S MA R 50
0                      0.9876989              -0
0.004                  0.9884321       -9.981195
0.008                  0.9905307       -19.86917
0.012                  0.9937059       -29.57554
0.016                  0.9975271       -39.02076
0.02                    1.001485       -48.13674
0.024                   1.005067       -56.86796
0.028                   1.007825       -65.17143
0.032                   1.009434       -73.01596
0.036                   1.009733        -80.3812
0.04                    1.008737       -87.25706
0.044                   1.006636       -93.64332
0.048                   1.003763       -99.54978
0.052                   1.000544       -104.9964
0.056                  0.9974421       -110.0131
0.06                   0.9948875       -114.6389
0.064                  0.9932163         -118.92
0.068                  0.9926234       -122.9064
0.072                  0.9931364       -126.6483
0.076                  0.9946181       -130.1921
0.08                   0.9967936       -133.5763
0.084                   0.999299       -136.8298
0.088                   1.001741       -139.9707
0.092                   1.003756       -143.0065
0.096                   1.005065       -145.9369
0.1                     1.005508       -148.7552
0.104                   1.005062       -151.4523
0.108                   1.003842       -154.0195
0.112                   1.002074       -156.4509
0.116                   1.000061       -158.7464
0.12                    0.998132       -160.9119
0.124                   0.996591       -162.9603
0.128                  0.9956691       -164.9099
0.132                  0.9954902       -166.7828
0.136                  0.9960533       -168.6014
0.14                   0.9972376       -170.3862
0.144                  0.9988271       -172.1527
0.148                   1.000548         -173.91
0.152                   1.002117       -175.6602
0.156                   1.003286        -177.399
0.16                     1.00388       -179.1172
0.164                   1.003823        179.1975
0.168                   1.003145        177.5576
0.172                   1.001978        175.9739
0.176                   1.000527        174.4532
0.18                   0.9990399        172.9972
0.184                  0.9977641        171.6016
0.188                  0.9969059        170.2572
0.192                  0.9965966        168.9504
0.196                  0.9968733        167.6662
0.2                    0.9976738        166.3901
0.204                  0.9988495        165.1103
0.208                   1.000193        163.8195
0.212                   1.001476        162.5162
0.216                   1.002484        161.2038
0.22                    1.003054        159.8903
0.224                   1.003101        158.5867
0.228                   1.002627        157.3046
0.232                   1.001721        156.0547
0.236                   1.000544        154.8445
0.24                    0.999298        153.6773
0.244                  0.9981948        152.5516
0.248                  0.9974189         151.461
0.252                   0.997096        150.3953
0.256                  0.9972733        149.3423
0.26                    0.997912          148.29
0.264                  0.9988947        147.2283
0.268                   1.000048        146.1507
0.272                   1.001173        145.0554
0.276                   1.002077        143.9454
0.28                     1.00261        142.8277
0.284                   1.002687        141.7121
0.288                   1.002298        140.6093
0.292                   1.001517        139.5294
0.296                    1.00048        138.4799
0.3                    0.9993667        137.4644
0.304                  0.9983693        136.4822
0.308                  0.9976573         135.528
0.312                  0.9973511        134.5933
0.316                  0.9974991        133.6671
0.32                   0.9980718        132.7387
0.324                  0.9989661        131.7986
0.328                   1.000024         130.841
0.332                   1.001063        129.8642
0.336                   1.001904        128.8706
0.34                    1.002403         127.867
0.344                   1.002478        126.8624
0.348                   1.002118        125.8671
0.352                   1.001388        124.8906
0.356                   1.000416        123.9403
0.36                   0.9993715        123.0199
0.364                  0.9984345        122.1288
0.368                  0.9977681        121.2622
0.372                  0.9974868        120.4121
0.376                  0.9976383        119.5682
0.38                   0.9981945        118.7202
0.384                  0.9990565        117.8593
0.388                   1.000074        116.9798
0.392                   1.001068        116.0801
0.396                   1.001868        115.1629
0.4                     1.002335        114.2346
0.404                   1.002389        113.3041
0.408                   1.002023        112.3815
0.412                   1.001299        111.4762
0.416                   1.000345        110.5953
0.42                   0.9993265        109.7423
0.424                  0.9984209        108.9167
0.428                  0.9977868        108.1136
0.432                   0.997535         107.325
0.436                  0.9977098        106.5409
0.44                   0.9982801        105.7511
0.444                  0.9991455        104.9469
0.448                   1.000154        104.1232
0.452                    1.00113        103.2784
0.456                   1.001902        102.4154
0.46                    1.002336         101.541
0.464                   1.002355        100.6641
0.468                   1.001955        99.79482
0.472                   1.001206        98.94254
0.476                   1.000236        98.11416
0.48                   0.9992152        97.31308
0.484                  0.9983217        96.53834
0.488                  0.9977127          95.785
0.492                  0.9974958        95.04463
0.496                  0.9977098        94.30708
0.5                    0.9983177         93.5621
0.504                  0.9992128        92.80124
0.508                   1.000238        92.01935
0.512                   1.001212        91.21544
0.516                   1.001964        90.39282
0.52                    1.002362        89.55852
0.524                   1.002332        88.72201
0.528                    1.00188        87.89359
0.532                    1.00108        87.08268
0.536                   1.000072        86.29612
0.54                   0.9990304        85.53691
0.544                  0.9981387        84.80377
0.548                  0.9975543        84.09111
0.552                  0.9973815        83.39006
0.556                  0.9976523        82.69005
0.56                   0.9983203        81.98058
0.564                  0.9992684        81.25331
0.568                    1.00033         80.5033
0.572                   1.001317        79.73004
0.576                   1.002055         78.9375
0.58                    1.002412         78.1333
0.584                   1.002323        77.32748
0.588                     1.0018        76.53078
0.592                   1.000932        75.75275
0.596                  0.9998676        75.00008
0.6                    0.9987936        74.27542
0.604                  0.9978991        73.57685
0.608                  0.9973435        72.89804
0.612                  0.9972271        72.22941
0.616                  0.9975732        71.55976
0.62                   0.9983226         70.8783
0.624                  0.9993442        70.17665
0.628                   1.000458        69.45026
0.632                   1.001467        68.69921
0.636                   1.002192        67.92826
0.64                    1.002503        67.14585
0.644                   1.002341        66.36281
0.648                    1.00173        65.59037
0.652                   1.000773        64.83828
0.656                  0.9996375        64.11311
0.66                   0.9985207        63.41702
0.664                   0.997621        62.74725
0.668                  0.9970996        62.09656
0.672                  0.9970525        61.45442
0.676                  0.9974912        60.80891
0.68                    0.998341        60.14883
0.684                  0.9994533        59.46576
0.688                   1.000632        58.75561
0.692                   1.001668        58.01924
0.696                   1.002376        57.26235
0.7                     1.002629        56.49445
0.704                   1.002375        55.72726
0.708                   1.001656        54.97264
0.712                   1.000592        54.24059
0.716                  0.9993687        53.53749
0.72                   0.9981999        52.86482
0.724                  0.9972938         52.2189
0.728                  0.9968141        51.59131
0.732                  0.9968501        50.97039
0.736                  0.9973997        50.34334
0.74                   0.9983688         49.6985
0.744                  0.9995878        49.02747
0.748                   1.000841        48.32669
0.752                   1.001906        47.59797
0.756                   1.002592        46.84819
0.76                    1.002772        46.08809
0.764                   1.002408        45.33043
0.768                   1.001559        44.58783
0.772                   1.000369        43.87054
0.776                  0.9990424        43.18465
0.78                   0.9978143        42.53087
0.784                  0.9969038        41.90434
0.788                  0.9964763        41.29524
0.792                  0.9966131        40.69062
0.796                   0.997295        40.07663
0.8                    0.9984049        39.44109
0.804                  0.9997484        38.77571
0.808                   1.001087        38.07757
0.812                   1.002183        37.34962
0.816                   1.002838        36.60015
0.82                    1.002931        35.84133
0.824                   1.002437        35.08715
0.828                   1.001436        34.35104
0.832                   1.000098        33.64351
0.836                  0.9986556        32.97029
0.84                   0.9973631        32.33115
0.844                  0.9964529        31.71977
0.848                   0.996092        31.12476
0.852                  0.9963513        30.53159
0.856                  0.9971906        29.92526
0.86                   0.9984659        29.29305
0.864                  0.9999536        28.62678
0.868                    1.00139         27.9244
0.872                   1.002518        27.19018
0.876                   1.003134        26.43408
0.88                    1.003122        25.66991
0.884                   1.002474        24.91309
0.888                   1.001296        24.17794
0.892                  0.9997878        23.47526
0.896                  0.9982131        22.81028
0.9                    0.9968504        22.18163
0.904                  0.9959459        21.58132
0.908                  0.9956677        20.99603
0.912                  0.9960734        20.40948
0.916                  0.9970986        19.80533
0.92                   0.9985667        19.17025
0.924                    1.00022        18.49632
0.928                   1.001766        17.78247
0.932                   1.002927        17.03461
0.936                   1.003493        16.26458
0.94                    1.003353        15.48815
0.944                   1.002521        14.72234
0.948                   1.001134        13.98251
0.952                  0.9994275        13.27974
0.956                  0.9976994        12.61868
0.96                   0.9962571        11.99655
0.964                  0.9953623        11.40338
0.968                  0.9951836        10.82364
0.972                  0.9957626        10.23895
0.976                  0.9970054        9.631452
0.98                   0.9986976        8.987165
0.984                   1.000542        8.298483
0.988                   1.002211        7.565546
0.992                   1.003405        6.796166
0.996                   1.003905        6.004449
1                       1.003609        5.208404
1.004                   1.002558        4.426927
1.008                   1.000921        3.676602
1.012                   0.998979        2.968788
1.016                  0.9970697        2.307443
1.02                   0.9955338        1.688139
1.024                  0.9946516        1.098553
1.028                  0.9945913       0.5204798
1.032                  0.9953758      -0.0669145
1.036                   0.996876      -0.6832491
1.04                   0.9988322       -1.343283
1.044                   1.000901       -2.054222
1.048                   1.002713       -2.814471
1.052                   1.003943       -3.613967
1.056                   1.004361       -4.435936
1.06                    1.003879       -5.259705
1.064                   1.002562       -6.064143
1.068                   1.000626       -6.831211
1.072                     0.9984       -7.549171
1.076                  0.9962727       -8.214876
1.08                   0.9946237       -8.834758
1.084                  0.9937563        -9.42393
1.088                  0.9938388       -10.00381
1.092                  0.9948715       -10.59823
1.096                   0.996683       -11.22896
1.1                    0.9989596       -11.91168
1.104                   1.001301       -12.65316
1.108                   1.003289       -13.45008
1.112                   1.004565       -14.28962
1.116                   1.004888       -15.15189
1.12                    1.004179       -16.01291
1.124                   1.002541       -16.84884
1.128                   1.000239       -17.63983
1.132                  0.9976648       -18.37356
1.136                   0.995267       -19.04782
1.14                   0.9934757       -19.67137
1.144                  0.9926229       -20.26283
1.148                  0.9928788       -20.84757
1.152                  0.9942168       -21.45315
1.156                  0.9964148       -22.10406
1.16                   0.9990924       -22.81724
1.164                   1.001779       -23.59896
1.168                   1.003994       -24.44382
1.172                   1.005337       -25.33579
1.176                   1.005548       -26.25094
1.18                    1.004563       -27.16133
1.184                   1.002524       -28.03958
1.188                  0.9997598       -28.86336
1.192                  0.9967388       -29.61953
1.196                  0.9939879       -30.30684
1.2                    0.9920025       -30.93688
1.204                  0.9911541       -31.53264
1.208                  0.9916192       -32.12459
1.212                  0.9933397       -32.74511
1.216                  0.9960303       -33.42242
1.22                   0.9992261       -34.17518
1.224                   1.002366       -35.00924
1.228                   1.004888       -35.91673
1.232                    1.00633       -36.87754
1.236                   1.006411       -37.86269
1.24                    1.005074       -38.83902
1.244                   1.002512       -39.77437
1.248                  0.9991329         -40.643
1.252                  0.9955049       -41.43021
1.256                    0.99226       -42.13569
1.26                    0.989984       -42.77456
1.264                  0.9891084        -43.3754
1.268                   0.989823        -43.9756
1.272                   0.992035       -44.61429
1.276                  0.9953776       -45.32491
1.28                   0.9992742       -46.12889
1.284                   1.003039       -47.03187
1.288                   1.005998       -48.02296
1.292                   1.007602       -49.07678
1.296                   1.007524       -50.15769
1.3                     1.005717       -51.22526
1.304                   1.002429       -52.24059
1.308                  0.9981761       -53.17259
1.312                  0.9936617        -54.0038
1.316                  0.9896682       -54.73452
1.32                   0.9869179       -55.38422
1.324                  0.9859372       -55.98931
1.328                  0.9869501       -56.59704
1.332                  0.9898232        -57.2567
1.336                  0.9940823       -58.00993
1.34                   0.9989924       -58.88285
1.344                   1.003687       -59.88155
1.348                   1.007319       -60.99141
1.352                   1.009201       -62.17998
1.356                   1.008926       -63.40211
1.36                     1.00644       -64.60671
1.364                   1.002061       -65.74438
1.368                  0.9964468       -66.77511
1.372                  0.9905063       -67.67593
1.376                   0.985255       -68.44656
1.38                   0.9816403       -69.11203
1.384                  0.9803607       -69.72037
1.388                  0.9817183       -70.33467
1.392                   0.985542        -71.0212
1.396                  0.9912032       -71.83611
1.4                    0.9977231       -72.81463
1.404                   1.003942       -73.96519
1.408                    1.00872       -75.26877
1.412                   1.011121       -76.68273
1.416                   1.010573       -78.14754
1.42                    1.006965       -79.59492
1.424                   1.000692       -80.95723
1.428                  0.9926197       -82.17762
1.432                  0.9839853       -83.22045
1.436                  0.9762161       -84.08081
1.44                   0.9706908       -84.79041
1.444                  0.9684729       -85.41652
1.448                  0.9700755       -86.05209
1.452                  0.9753233       -86.79778
1.456                  0.9833513        -87.7414
1.46                   0.9927467       -88.94051
1.464                   1.001792        -90.4133
1.468                   1.008749       -92.13788
1.472                   1.012132       -94.05774
1.476                   1.010936       -96.09061
1.48                    1.004798        -98.1383
1.484                  0.9940944       -100.0977
1.488                  0.9799546       -101.8737
1.492                  0.9641808       -103.3946
1.496                  0.9490472       -104.6316
1.5                    0.9369633       -105.6174
1.504                  0.9300194       -106.4571
1.508                  0.9294927        -107.321
1.512                  0.9354605       -108.4162
1.516                  0.9466555        -109.944
1.52                   0.9606188       -112.0611
1.524                  0.9740731       -114.8601
1.528                    0.98338       -118.3702
1.532                  0.9849582       -122.5728
1.536                  0.9756015       -127.4194
1.54                   0.9526935       -132.8489
1.544                  0.9143344       -138.7991
1.548                  0.8594056       -145.2158
1.552                  0.7875866       -152.0601
1.556                  0.6993407       -159.3193
1.56                   0.5958767       -167.0285
1.564                  0.4791024       -175.3292
1.568                  0.3516112        175.3325
1.572                  0.2169607         163.245
1.576                 0.08386318        135.2127
1.58                  0.08527345         12.0807
1.584                  0.2183709        -15.4291
1.588                  0.3526054       -27.46041
1.592                  0.4794726       -36.78394
1.596                  0.5954593       -45.07991
1.6                    0.6980143       -52.78778
1.604                  0.7852773       -60.04688
1.608                  0.8560897       -66.89128
1.612                  0.9100403       -73.30749
1.616                  0.9475007       -79.25616
1.62                   0.9696378       -84.68265
1.624                  0.9783935       -89.52465
1.628                  0.9764178       -93.72127
1.632                   0.966938        -97.2254
1.636                   0.953541       -100.0204
1.64                   0.9398493       -102.1392
1.644                  0.9291007       -103.6784
1.648                  0.9236936        -104.799
1.652                  0.9248219       -105.7047
1.656                  0.9323384       -106.6029
1.66                   0.9449122       -107.6616
1.664                  0.9604269       -108.9825
1.668                  0.9764701       -110.5947
1.672                  0.9907824       -112.4666
1.676                   1.001584        -114.525
1.68                    1.007769       -116.6737
1.684                   1.008979       -118.8093
1.688                   1.005588       -120.8336
1.692                  0.9986052       -122.6644
1.696                  0.9895171       -124.2448
1.7                    0.9800606       -125.5527
1.704                  0.9719565       -126.6056
1.708                  0.9666267       -127.4606
1.712                  0.9649531       -128.2053
1.716                  0.9671336       -128.9407
1.72                   0.9726782       -129.7608
1.724                  0.9805421       -130.7346
1.728                  0.9893557       -131.8954
1.732                  0.9976875       -133.2402
1.736                   1.004283        -134.735
1.74                    1.008243       -136.3238
1.744                   1.009133       -137.9396
1.748                   1.007017       -139.5135
1.752                   1.002421       -140.9848
1.756                  0.9962451       -142.3084
1.76                   0.9896107        -143.462
1.764                  0.9836846       -144.4502
1.768                  0.9794816       -145.3044
1.772                  0.9776913       -146.0781
1.776                  0.9785631        -146.837
1.78                   0.9818737       -147.6455
1.784                  0.9869894       -148.5551
1.788                      0.993       -149.5956
1.792                  0.9988935       -150.7714
1.796                   1.003731       -152.0641
1.8                      1.00679       -153.4369
1.804                    1.00767       -154.8422
1.808                   1.006332       -156.2287
1.812                   1.003094       -157.5494
1.816                  0.9985703        -158.768
1.82                   0.9935674       -159.8641
1.824                  0.9889541       -160.8377
1.828                  0.9855143       -161.7084
1.832                  0.9838133       -162.5132
1.836                  0.9841026       -163.2994
1.84                   0.9862829       -164.1156
1.844                  0.9899334       -165.0024
1.848                  0.9944001        -165.986
1.852                  0.9989198       -167.0739
1.856                   1.002753       -168.2555
1.86                    1.005303       -169.5054
1.864                   1.006208       -170.7876
1.868                   1.005381       -172.0625
1.872                   1.003021       -173.2921
1.876                  0.9995672       -174.4462
1.88                   0.9956315       -175.5064
1.884                  0.9918912         -176.47
1.888                  0.9889777       -177.3498
1.892                  0.9873693       -178.1727
1.896                  0.9873102       -178.9743
1.9                    0.9887729       -179.7928
1.904                  0.9914711        179.3382
1.908                  0.9949182        178.3959
1.912                    0.99852        177.3712
1.916                   1.001679        176.2696
1.92                    1.003892        175.1093
1.924                   1.004829        173.9176
1.928                   1.004377        172.7261
1.932                   1.002653         171.566
1.936                  0.9999771        170.4631
1.94                   0.9968184        169.4339
1.944                  0.9937167        168.4831
1.948                  0.9911916        167.6025
1.952                   0.989655        166.7727
1.956                  0.9893427        165.9661
1.96                   0.9902765        165.1522
1.964                   0.992267         164.303
1.968                  0.9949526        163.3981
1.972                   0.997867        162.4277
1.976                   1.000523        161.3935
1.98                    1.002491        160.3081
1.984                    1.00347        159.1922
1.988                   1.003328         158.071
1.992                   1.002117        156.9702
1.996                   1.000064         155.912
2                      0.9975245        154.9116
2.004                  0.9949279        153.9751
2.008                  0.9927038        153.0983
2.012                  0.9912107        152.2673
2.016                   0.990677        151.4613
2.02                    0.991165        150.6559
2.024                  0.9925647        149.8279
2.028                  0.9946173        148.9586
2.032                  0.9969649        148.0377
2.036                  0.9992126        147.0639
2.04                    1.000995         146.045
2.044                   1.002034        144.9959
2.048                   1.002179        143.9361
2.052                   1.001428        142.8867
2.056                  0.9999195        141.8668
2.06                   0.9979126        140.8906
2.064                  0.9957386        139.9656
2.068                  0.9937484         139.091
2.072                  0.9922555        138.2584
2.076                  0.9914844        137.4527
2.08                   0.9915367        136.6551
2.084                  0.9923766        135.8464
2.088                  0.9938419        135.0097
2.092                  0.9956738        134.1338
2.096                  0.9975636        133.2145
2.1                    0.9992026        132.2548
2.104                   1.000331        131.2641
2.108                   1.000777        130.2566
2.112                   1.000479        129.2488
2.116                  0.9994913        128.2571
2.12                   0.9979747        127.2951
2.124                  0.9961666         126.372
2.128                   0.994344        125.4909
2.132                  0.9927804        124.6485
2.136                  0.9917032        123.8357
2.14                   0.9912591        123.0392
2.144                  0.9914926        122.2434
2.148                   0.992342         121.433
2.152                   0.993652        120.5956
2.156                  0.9951997        119.7234
2.16                   0.9967307        118.8142
2.164                  0.9979978        117.8713
2.168                  0.9987973        116.9031
2.172                  0.9989975        115.9218
2.176                  0.9985562        114.9409
2.18                   0.9975242        113.9741
2.184                  0.9960381        113.0328
2.188                  0.9942991        112.1248
2.192                  0.9925452         111.253
2.196                  0.9910161        110.4149
2.2                    0.9899183         109.603
2.204                  0.9893956        108.8056
2.208                  0.9895062        108.0087
2.212                  0.9902141        107.1978
2.216                  0.9913935        106.3603
2.22                   0.9928454        105.4872
2.224                  0.9943272        104.5744
2.228                   0.995585        103.6234
2.232                  0.9963911        102.6408
2.236                  0.9965759        101.6377
2.24                   0.9960535        100.6283
2.244                  0.9948367        99.62765
2.248                   0.993039        98.64974
2.252                   0.990863        97.70556
2.256                  0.9885759        96.80111
2.26                    0.986473        95.93611
2.264                  0.9848351        95.10354
2.268                  0.9838839        94.29016
2.272                  0.9837431        93.47809
2.276                  0.9844129        92.64732
2.28                   0.9857612        91.77874
2.284                  0.9875373        90.85726
2.288                  0.9894032        89.87421
2.292                  0.9909822          88.829
2.296                   0.991914        87.72931
2.3                    0.9919107        86.59039
2.304                  0.9908054          85.433
2.308                  0.9885855        84.28069
2.312                  0.9854066        83.15631
2.316                   0.981582        82.07838
2.32                   0.9775454         81.0575
2.324                  0.9737933        80.09346
2.328                  0.9708053        79.17381
2.332                  0.9689611        78.27425
2.336                  0.9684631        77.36138
2.34                   0.9692844        76.39759
2.344                   0.971151        75.34713
2.348                  0.9735694        74.18207
2.352                  0.9758898        72.88699