! TOUCHSTONE file generated by CST MICROWAVE STUDIO
! Date and time: Tue Jun 14 14:31:13 2022
! Project name: AppElm_antenne_patch_FR4.cst
! Parameters = {L=45; W=58.5; e=0.035; h=1.6; lambda=0.190476; ls=102; w0=2.54; w1=0.847; ws=120; y0=18; y1=23.8}
! Header version: 2018
! Port assignment regex: !\s*Touchstone port\s*([0-9]+)\s*=\s*(CST MWS port|CST DS port)\s*([0-9]+|Zmin|Zmax)\s*\(\"(.*)\"\)(\s*mode\s*([0-9]+))?.*
! Touchstone port assignment:
! Touchstone port 1 = CST MWS port 1 ("")
# GHz S MA R 50
0                      0.9875609              -0
0.004                  0.9882983       -9.977923
0.008                  0.9904092       -19.86279
0.012                  0.9936044       -29.56636
0.016                  0.9974526       -39.00925
0.02                    1.001444       -48.12347
0.024                   1.005063        -56.8536
0.028                   1.007859       -65.15673
0.032                   1.009505       -73.00167
0.036                   1.009836       -80.36807
0.04                    1.008864        -87.2457
0.044                   1.006775       -93.63423
0.048                     1.0039       -99.54319
0.052                   1.000665       -104.9922
0.056                  0.9975328        -110.011
0.06                   0.9949371       -114.6383
0.064                  0.9932189       -118.9199
0.068                  0.9925788       -122.9058
0.072                  0.9930511       -126.6464
0.076                  0.9945047       -130.1879
0.08                   0.9966689       -133.5695
0.084                  0.9991822       -136.8204
0.088                    1.00165       -139.9588
0.092                   1.003707       -142.9931
0.096                   1.005068       -145.9228
0.1                     1.005565       -148.7416
0.104                   1.005168       -151.4404
0.108                   1.003984       -154.0102
0.112                   1.002234       -156.4449
0.116                   1.000218       -158.7439
0.12                   0.9982632       -160.9126
0.124                   0.996678       -162.9635
0.128                  0.9956995       -164.9145
0.132                  0.9954598       -166.7874
0.136                  0.9959672       -168.6048
0.14                   0.9971096       -170.3871
0.144                   0.998677       -172.1505
0.148                     1.0004       -173.9044
0.152                   1.001993       -175.6517
0.156                   1.003206       -177.3883
0.16                    1.003856       -179.1054
0.164                   1.003858         179.209
0.168                   1.003233        177.5675
0.172                   1.002104        175.9811
0.176                   1.000671        174.4571
0.18                   0.9991771        172.9975
0.184                  0.9978708        171.5988
0.188                   0.996963        170.2522
0.192                  0.9965933        168.9445
0.196                  0.9968083        167.6609
0.2                     0.997556        166.3867
0.204                  0.9986969        165.1099
0.208                   1.000029        163.8227
0.212                   1.001326        162.5229
0.216                   1.002372        161.2134
0.22                    1.002998        159.9018
0.224                   1.003109        158.5986
0.228                   1.002698        157.3155
0.232                   1.001843        156.0632
0.236                   1.000697        154.8496
0.24                   0.9994571        153.6787
0.244                  0.9983331        152.5494
0.248                   0.997513        151.4559
0.252                  0.9971304        150.3886
0.256                  0.9972421        149.3356
0.26                   0.9978202        148.2848
0.264                   0.998758        147.2258
0.268                    0.99989        146.1517
0.272                    1.00102        145.0603
0.276                   1.001957        143.9536
0.28                    1.002543        142.8383
0.284                   1.002686        141.7236
0.288                   1.002366        140.6202
0.292                   1.001644        139.5382
0.296                   1.000646        138.4853
0.3                    0.9995468        137.4658
0.304                  0.9985339        136.4795
0.308                  0.9977804         135.522
0.312                  0.9974126        134.5852
0.316                  0.9974897        133.6585
0.32                   0.9979937        132.7312
0.324                  0.9988334        131.7938
0.328                  0.9998605        130.8399
0.332                   1.000897        129.8671
0.336                   1.001763        128.8774
0.34                    1.002314        127.8766
0.344                   1.002456        126.8734
0.348                   1.002169        125.8779
0.352                   1.001505        124.8995
0.356                    1.00058        123.9459
0.36                   0.9995547        123.0214
0.364                  0.9986073        122.1261
0.368                  0.9979007        121.2558
0.372                  0.9975568        120.4033
0.376                  0.9976334        119.5586
0.38                   0.9981147        118.7116
0.384                  0.9989154        117.8534
0.388                  0.9998948        116.9778
0.392                   1.000882        116.0826
0.396                   1.001707        115.1696
0.4                     1.002227        114.2447
0.404                   1.002354        113.3161
0.408                   1.002068        112.3936
0.412                   1.001419        111.4865
0.416                   1.000521        110.6022
0.42                   0.9995295        109.7449
0.424                  0.9986185        108.9146
0.428                  0.9979465        108.1073
0.432                  0.9976309        107.3159
0.436                  0.9977265        106.5306
0.44                   0.9982161        105.7416
0.444                  0.9990135        104.9401
0.448                  0.9999788        104.1204
0.452                   1.000943        103.2803
0.456                   1.001739         102.422
0.46                    1.002227        101.5512
0.464                   1.002322        100.6764
0.468                   1.002008        99.80736
0.472                    1.00134        98.95328
0.476                   1.000431        98.12139
0.48                    0.999442        97.31559
0.484                  0.9985442        96.53581
0.488                  0.9978951         95.7779
0.492                  0.9976091        95.03429
0.496                  0.9977364        94.29539
0.5                    0.9982549         93.5512
0.504                  0.9990736        92.79318
0.508                   1.000048        92.01569
0.512                   1.001008        91.21699
0.516                   1.001783        90.39954
0.52                    1.002238        89.56944
0.524                   1.002292         88.7355
0.528                   1.001933        87.90755
0.532                   1.001223        87.09489
0.536                   1.000285        86.30464
0.54                   0.9992814        85.54045
0.544                  0.9983886        84.80186
0.548                  0.9977643        84.08426
0.552                  0.9975195        83.37962
0.556                  0.9976989        82.67807
0.56                   0.9982719        81.96942
0.564                  0.9991386        81.24515
0.568                   1.000147        80.49987
0.572                   1.001119        79.73225
0.576                   1.001884        78.94525
0.58                    1.002306        78.14557
0.584                    1.00231        77.34248
0.588                   1.001892        76.54616
0.592                   1.001123        75.76607
0.596                   1.000137         75.0092
0.6                    0.9991049        74.27892
0.604                  0.9982097        73.57416
0.608                  0.9976099        72.88973
0.612                  0.9974136        72.21699
0.616                  0.9976578        71.54549
0.62                   0.9983012        70.86478
0.624                  0.9992315        70.16632
0.628                   1.000285        69.44502
0.632                   1.001276        68.70008
0.636                   1.002028        67.93516
0.64                    1.002408        67.15768
0.644                   1.002345        66.37759
0.648                   1.001847        65.60553
0.652                   1.000998        64.85118
0.656                   0.999945        64.12141
0.66                    0.998872        63.41915
0.664                  0.9979687        62.74266
0.668                  0.9973964         62.0859
0.672                  0.9972593        61.43941
0.676                  0.9975847        60.79205
0.68                   0.9983178        60.13297
0.684                  0.9993305        59.45363
0.688                   1.000445        58.74927
0.692                   1.001463        58.01974
0.696                   1.002205        57.26957
0.7                     1.002537        56.50712
0.704                   1.002397        55.74311
0.708                   1.001805        54.98881
0.712                   1.000862        54.25413
0.716                   0.999731        53.54579
0.72                   0.9986107        52.86616
0.724                  0.9977003         52.2127
0.728                  0.9971637        51.57831
0.732                  0.9970999        50.95253
0.736                  0.9975243        50.32342
0.74                    0.998365        49.67967
0.744                  0.9994754        49.01273
0.748                    1.00066        48.31827
0.752                   1.001708        47.59697
0.756                   1.002432        46.85441
0.76                    1.002702        46.10004
0.764                   1.002463        45.34558
0.768                   1.001753          44.603
0.772                   1.000692        43.88244
0.776                  0.9994628        43.19045
0.78                   0.9982815        42.52875
0.784                  0.9973581        41.89376
0.788                  0.9968595        41.27716
0.792                  0.9968784        40.66731
0.796                  0.9974155        40.05129
0.8                     0.998379        39.41731
0.804                  0.9995998         38.7568
0.808                   1.000862        38.06597
0.812                   1.001941         37.3465
0.816                   1.002641        36.60521
0.82                    1.002835        35.85282
0.824                   1.002482        35.10216
0.828                   1.001636          34.366
0.832                   1.000441        33.65477
0.836                  0.9991035        32.97474
0.84                   0.9978595         32.3268
0.844                  0.9969314        31.70614
0.848                  0.9964881        31.10301
0.852                  0.9966142        30.50435
0.856                  0.9972928        29.89616
0.86                   0.9984079        29.26605
0.864                  0.9997645        28.60554
0.868                   1.001123        27.91151
0.872                    1.00224        27.18681
0.876                   1.002916        26.43969
0.88                    1.003024         25.6824
0.884                   1.002539        24.92908
0.888                   1.001536        24.19336
0.892                   1.000188        23.48597
0.896                  0.9987276        22.81287
0.9                    0.9974132        22.17396
0.904                  0.9964809        21.56299
0.908                  0.9961022        20.96852
0.912                  0.9963513        20.37588
0.916                  0.9971904        19.76983
0.92                   0.9984754        19.13738
0.924                  0.9999808        18.47013
0.928                    1.00144        17.76583
0.932                   1.002591        17.02869
0.936                   1.003225        16.26867
0.94                    1.003222        15.49977
0.944                   1.002572        14.73762
0.948                   1.001378        13.99685
0.952                  0.9998446        13.28854
0.956                   0.998236        12.61817
0.96                   0.9968372        11.98451
0.964                  0.9958998        11.37959
0.968                  0.9955975        10.78997
0.972                  0.9959922        10.19908
0.976                  0.9970211         9.59025
0.98                   0.9985071        8.949773
0.984                   1.000189        8.269417
0.988                   1.001769        7.547896
0.992                   1.002962        6.791062
0.996                   1.003552        6.010865
1                       1.003424         5.22331
1.004                   1.002587        4.445768
1.008                   1.001177        3.694024
1.012                  0.9994347        2.979527
1.016                  0.9976616        2.307248
1.02                   0.9961731        1.674571
1.024                  0.9952392         1.07149
1.028                  0.9950355       0.4822136
1.032                  0.9956087      -0.1120476
1.036                  0.9968665      -0.7296449
1.04                   0.9985924       -1.385089
1.044                   1.000483       -2.086396
1.048                   1.002203       -2.833667
1.052                   1.003442       -3.619115
1.056                   1.003973       -4.428429
1.06                    1.003686       -5.243198
1.064                   1.002618       -6.043979
1.068                   1.000939       -6.813579
1.072                  0.9989342        -7.54007
1.076                  0.9969506       -8.219058
1.08                   0.9953401       -8.854811
1.084                  0.9943953       -9.459664
1.088                  0.9942947       -10.05231
1.092                  0.9950682       -10.65421
1.096                  0.9965884       -11.28573
1.1                    0.9985918       -11.96241
1.104                   1.000725       -12.69201
1.108                   1.002608       -13.47327
1.112                   1.003898       -14.29615
1.116                   1.004355       -15.14348
1.12                    1.003878       -15.99397
1.124                    1.00253       -16.82567
1.128                   1.000527       -17.61964
1.132                   0.998206       -18.36333
1.136                  0.9959702       -19.05298
1.14                   0.9942169       -19.69479
1.144                  0.9932672       -20.30413
1.148                   0.993305       -20.90312
1.152                  0.9943398       -21.51659
1.156                  0.9962013       -22.16754
1.16                   0.9985686        -22.8728
1.164                   1.001026       -23.63997
1.168                   1.003135       -24.46614
1.172                   1.004515       -25.33848
1.176                   1.004903       -26.23642
1.18                    1.004208       -27.13504
1.184                   1.002523       -28.00917
1.188                    1.00012       -28.83755
1.192                  0.9974012       -29.60663
1.196                  0.9948388       -30.31331
1.2                      0.99289       -30.96603
1.204                  0.9919147       -31.58385
1.208                  0.9921061       -32.19326
1.212                  0.9934511       -32.82345
1.216                  0.9957279       -33.50084
1.22                    0.998543       -34.24407
1.224                   1.001401       -35.06068
1.228                   1.003789       -35.94583
1.232                    1.00527       -36.88322
1.236                   1.005556       -37.84794
1.24                    1.004559       -38.81037
1.244                   1.002413       -39.74103
1.248                  0.9994538        -40.6154
1.252                  0.9961735       -41.41831
1.256                  0.9931361       -42.14718
1.26                   0.9908818       -42.81322
1.264                  0.9898281        -43.4402
1.268                  0.9901881       -44.06058
1.272                  0.9919236        -44.7096
1.276                  0.9947483       -45.41858
1.28                   0.9981732       -46.20902
1.284                   1.001594       -47.08878
1.288                   1.004397       -48.05074
1.292                   1.006062       -49.07429
1.296                   1.006256       -50.12873
1.3                      1.00489       -51.17809
1.304                   1.002143        -52.1868
1.308                  0.9984374       -53.12545
1.312                  0.9943824       -53.97609
1.316                  0.9906729       -54.73628
1.32                   0.9879716       -55.42063
1.324                  0.9867853       -56.05936
1.328                  0.9873639       -56.69345
1.332                  0.9896447       -57.36703
1.336                   0.993254       -58.11899
1.34                   0.9975694       -58.97556
1.344                   1.001829       -59.94559
1.348                   1.005261       -61.01929
1.352                    1.00722       -62.17021
1.356                   1.007291       -63.35946
1.36                    1.005369       -64.54172
1.364                   1.001681       -65.67195
1.368                  0.9967698       -66.71262
1.372                  0.9914155       -67.64041
1.376                  0.9865161       -68.45169
1.38                   0.9829342        -69.1651
1.384                  0.9813364       -69.82022
1.388                  0.9820561       -70.47136
1.392                  0.9850143       -71.17749
1.396                  0.9897192       -71.99069
1.4                    0.9953464       -72.94618
1.404                   1.000881       -74.05605
1.408                   1.005294       -75.30768
1.412                    1.00771       -76.66645
1.416                   1.007557       -78.08123
1.42                    1.004666       -79.49166
1.424                  0.9993149       -80.83665
1.428                   0.992215       -82.06349
1.432                  0.9844227       -83.13729
1.436                  0.9771899       -84.04954
1.44                   0.9717573       -84.82358
1.444                  0.9691212       -85.51455
1.448                  0.9698211       -86.20174
1.452                  0.9738027       -86.97414
1.456                  0.9803961       -87.91255
1.46                    0.988419       -89.07376
1.464                  0.9963764       -90.48084
1.468                    1.00271       -92.12087
1.472                   1.006044       -93.94861
1.476                   1.005404        -95.8939
1.48                     1.00037       -97.87064
1.484                  0.9911762       -99.78705
1.488                  0.9787288       -101.5573
1.492                  0.9645429       -103.1158
1.496                  0.9505705        -104.433
1.5                    0.9389136       -105.5322
1.504                  0.9314379       -106.4982
1.508                  0.9293473       -107.4738
1.512                  0.9328334       -108.6379
1.516                   0.940915        -110.171
1.52                   0.9515231       -112.2212
1.524                   0.961791       -114.8835
1.528                  0.9684436       -118.1969
1.532                  0.9681771       -122.1533
1.536                  0.9579673       -126.7131
1.54                   0.9352894       -131.8195
1.544                  0.8982558       -137.4088
1.548                  0.8456917       -143.4186
1.552                  0.7771627       -149.7916
1.556                  0.6929665       -156.4798
1.56                   0.5940964       -163.4492
1.564                  0.4821805       -170.6913
1.568                  0.3594035       -178.2617
1.572                  0.2284233        173.5419
1.576                 0.09241975        162.3968
1.58                  0.04775422       -5.979478
1.584                  0.1842054       -22.60385
1.588                  0.3170055       -31.22929
1.592                  0.4424712       -38.94938
1.596                  0.5578231       -46.29077
1.6                    0.6607417       -53.35279
1.604                    0.74944       -60.14122
1.608                  0.8227431        -66.6287
1.612                  0.8801533        -72.7713
1.616                  0.9218922       -78.51484
1.62                   0.9489162       -83.79864
1.624                  0.9628997        -88.5597
1.628                  0.9661735       -92.73903
1.632                  0.9616082       -96.29136
1.636                  0.9524225       -99.19834
1.64                   0.9419047       -101.4834
1.644                  0.9330567       -103.2237
1.648                   0.928205       -104.5513
1.652                  0.9286761        -105.638
1.656                  0.9346424        -106.665
1.66                   0.9452066       -107.7877
1.664                  0.9586978       -109.1097
1.668                  0.9730766        -110.673
1.672                   0.986336       -112.4642
1.676                  0.9968154       -114.4288
1.68                    1.003406       -116.4874
1.684                   1.005644       -118.5502
1.688                   1.003721       -120.5295
1.692                  0.9984122       -122.3493
1.696                  0.9909447       -123.9553
1.7                    0.9828065       -125.3221
1.704                  0.9755175       -126.4586
1.708                  0.9703839       -127.4081
1.712                  0.9682814       -128.2418
1.716                  0.9695141       -129.0457
1.72                   0.9737866       -129.9032
1.724                   0.980293       -130.8795
1.728                  0.9878993       -132.0112
1.732                  0.9953629       -133.3034
1.736                   1.001548       -134.7325
1.74                    1.005597        -136.254
1.744                   1.007036       -137.8112
1.748                   1.005827       -139.3439
1.752                   1.002344       -140.7972
1.756                  0.9973057       -142.1287
1.76                   0.9916536       -143.3149
1.764                  0.9863986       -144.3551
1.768                  0.9824532       -145.2721
1.772                  0.9804779       -146.1085
1.776                  0.9807711       -146.9189
1.78                   0.9832276       -147.7594
1.784                  0.9873748       -148.6772
1.788                  0.9924749       -149.7024
1.792                  0.9976666        -150.844
1.796                   1.002118       -152.0904
1.8                     1.005158       -153.4133
1.804                   1.006376       -154.7733
1.808                   1.005668       -156.1264
1.812                   1.003242       -157.4307
1.816                  0.9995781       -158.6526
1.82                   0.9953395       -159.7716
1.824                  0.9912685       -160.7839
1.828                  0.9880597       -161.7029
1.832                  0.9862434       -162.5573
1.836                  0.9860969       -163.3858
1.84                   0.9876024         -164.23
1.844                  0.9904607       -165.1265
1.848                  0.9941536       -166.1007
1.852                  0.9980447       -167.1628
1.856                   1.001492       -168.3076
1.86                    1.003951       -169.5158
1.864                   1.005064       -170.7589
1.868                   1.004701       -172.0031
1.872                   1.002977       -173.2154
1.876                   1.000223       -174.3683
1.88                   0.9969322       -175.4436
1.884                   0.993673       -176.4361
1.888                  0.9909963       -177.3537
1.892                  0.9893421       -178.2167
1.896                  0.9889661       -179.0538
1.9                    0.9898998       -179.8971
1.904                  0.9919515        179.2239
1.908                  0.9947474        178.2874
1.912                  0.9978021        177.2828
1.916                   1.000606        176.2116
1.92                     1.00271        175.0866
1.924                   1.003795        173.9292
1.928                   1.003718        172.7654
1.932                   1.002531         171.622
1.936                   1.000462        170.5221
1.94                   0.9978793        169.4817
1.944                  0.9952258        168.5073
1.948                  0.9929464        167.5946
1.952                  0.9914129        166.7295
1.956                  0.9908628        165.8907
1.96                    0.991362        165.0529
1.964                  0.9927977        164.1921
1.968                   0.994904        163.2895
1.972                  0.9973122        162.3341
1.976                  0.9996158        161.3248
1.98                     1.00144        160.2697
1.984                   1.002501        159.1842
1.988                   1.002648        158.0885
1.992                    1.00188        157.0042
1.996                   1.000347        155.9507
2                      0.9983155        154.9425
2.004                  0.9961282        153.9868
2.008                   0.994144        153.0826
2.012                  0.9926803        152.2208
2.016                  0.9919599        151.3857
2.02                   0.9920778         150.558
2.024                  0.9929872        149.7179
2.028                  0.9945122        148.8489
2.032                  0.9963824        147.9401
2.036                  0.9982799        146.9879
2.04                   0.9998931        145.9962
2.044                   1.000967        144.9754
2.048                   1.001341        143.9403
2.052                   1.000969         142.908
2.056                  0.9999257        141.8948
2.06                   0.9983894        140.9139
2.064                  0.9966118        139.9735
2.068                  0.9948761        139.0755
2.072                  0.9934518        138.2154
2.076                  0.9925518        137.3826
2.08                   0.9922991        136.5631
2.084                  0.9927101        135.7412
2.088                  0.9936941        134.9022
2.092                  0.9950722        134.0352
2.096                  0.9966089        133.1339
2.1                    0.9980506        132.1983
2.104                  0.9991659        131.2337
2.108                  0.9997803        130.2499
2.112                  0.9998002        129.2595
2.116                  0.9992241        128.2762
2.12                   0.9981408        127.3122
2.124                  0.9967134        126.3769
2.128                  0.9951531        125.4755
2.132                  0.9936871        124.6081
2.136                  0.9925236        123.7698
2.14                   0.9918209        122.9514
2.144                  0.9916649        122.1412
2.148                  0.9920563        121.3263
2.152                  0.9929134        120.4949
2.156                  0.9940844        119.6382
2.16                   0.9953732        118.7512
2.164                  0.9965676        117.8337
2.168                  0.9974707          116.89
2.172                  0.9979298        115.9282
2.176                  0.9978554        114.9591
2.18                   0.9972358        113.9943
2.184                  0.9961366        113.0453
2.188                  0.9946932        112.1209
2.192                  0.9930916         111.227
2.196                  0.9915436        110.3647
2.2                    0.9902556        109.5305
2.204                  0.9893991        108.7168
2.208                  0.9890848        107.9122
2.212                  0.9893436        107.1038
2.216                  0.9901203        106.2785
2.22                   0.9912792        105.4255
2.224                  0.9926213        104.5374
2.228                  0.9939125        103.6117
2.232                  0.9949158        102.6513
2.236                  0.9954267        101.6638
2.24                    0.995304        100.6609
2.244                   0.994493        99.65679
2.248                  0.9930384        98.66605
2.252                  0.9910828         97.7017
2.256                  0.9888511        96.77293
2.26                   0.9866224         95.8835
2.264                  0.9846892        95.03059
2.268                  0.9833123        94.20457
2.272                  0.9826763        93.39009
2.276                  0.9828542        92.56795
2.28                    0.983787        91.71814
2.284                  0.9852849        90.82295
2.288                  0.9870495        89.86996
2.292                  0.9887156         88.8543
2.296                  0.9899055        87.77955
2.3                    0.9902878        86.65754
2.304                   0.989632        85.50687
2.308                  0.9878514        84.35036
2.312                  0.9850272        83.21174
2.316                  0.9814078        82.11197
2.32                   0.9773834        81.06548
2.324                  0.9734341        80.07678
2.328                  0.9700565        79.13834
2.332                  0.9676793        78.23024
2.336                    0.96658        77.32204
2.34                   0.9668214        76.37708
2.344                  0.9682202        75.35817
2.348                  0.9703577        74.23389
2.352                  0.9726329        72.98398