! TOUCHSTONE file generated by CST MICROWAVE STUDIO
! Date and time: Tue Jun  7 21:11:39 2022
! Project name: AppElm_antenne_patch_FR4.cst
! Parameters = {L=45; W=58.5; e=0.035; h=1.6; lambda=0.190476; ls=120; w0=1.6; w1=0.533333; ws=150; y0=20; y1=23.81}
! Header version: 2018
! Port assignment regex: !\s*Touchstone port\s*([0-9]+)\s*=\s*(CST MWS port|CST DS port)\s*([0-9]+|Zmin|Zmax)\s*\(\"(.*)\"\)(\s*mode\s*([0-9]+))?.*
! Touchstone port assignment:
! Touchstone port 1 = CST MWS port 1 ("")
# GHz S MA R 50
0                       0.989509              -0
0.004                  0.9901425        -9.93447
0.008                  0.9919547        -19.7816
0.012                  0.9946956       -29.45828
0.016                  0.9979912       -38.88927
0.02                    1.001399       -48.00957
0.024                   1.004475       -56.76562
0.028                   1.006828        -65.1155
0.032                   1.008179       -73.02845
0.036                   1.008391        -80.4842
0.04                    1.007483       -87.47249
0.044                   1.005624       -93.99273
0.048                    1.00311       -100.0541
0.052                   1.000316       -105.6752
0.056                  0.9976444       -110.8841
0.06                   0.9954679       -115.7171
0.064                   0.994073       -120.2165
0.068                  0.9936217       -124.4283
0.072                  0.9941292       -128.3982
0.076                  0.9954684       -132.1681
0.08                   0.9973934       -135.7734
0.084                  0.9995841       -139.2406
0.088                   1.001697       -142.5865
0.092                   1.003418       -145.8191
0.096                   1.004508       -148.9389
0.1                     1.004836       -151.9414
0.104                   1.004392       -154.8198
0.108                   1.003282       -157.5676
0.112                   1.001712       -160.1812
0.116                    0.99995       -162.6617
0.12                   0.9982839       -165.0158
0.124                  0.9969753       -167.2561
0.128                  0.9962193       -169.3996
0.132                   0.996115       -171.4664
0.136                  0.9966523       -173.4766
0.14                   0.9977176       -175.4483
0.144                  0.9991165       -177.3952
0.148                   1.000608       -179.3252
0.152                   1.001947        178.7599
0.156                    1.00292        176.8641
0.16                    1.003382        174.9953
0.164                   1.003276        173.1639
0.168                   1.002637        171.3805
0.172                   1.001588        169.6541
0.176                   1.000313        167.9898
0.18                   0.9990299        166.3882
0.184                  0.9979509        164.8451
0.188                  0.9972498        163.3515
0.192                  0.9970329        161.8954
0.196                  0.9973225        160.4635
0.2                    0.9980559        159.0431
0.204                   0.999097        157.6242
0.208                   1.000262        156.2011
0.212                   1.001353        154.7724
0.216                   1.002188        153.3418
0.22                    1.002631        151.9164
0.224                   1.002619        150.5057
0.228                   1.002162        149.1197
0.232                   1.001346        147.7673
0.236                   1.000316        146.4544
0.24                   0.9992508        145.1835
0.244                  0.9983303        143.9524
0.248                   0.997709         142.755
0.252                  0.9974874        141.5821
0.256                  0.9976961        140.4232
0.26                   0.9982915        139.2679
0.264                  0.9991654        138.1077
0.268                   1.000163        136.9376
0.272                   1.001113        135.7566
0.276                   1.001853        134.5676
0.28                     1.00226        133.3771
0.284                    1.00227        132.1936
0.288                   1.001887        131.0263
0.292                   1.001181        129.8836
0.296                   1.000278        128.7713
0.3                    0.9993336        127.6922
0.304                  0.9985124        126.6447
0.308                  0.9979542        125.6239
0.312                   0.997753        124.6219
0.316                    0.99794        123.6294
0.32                   0.9984786         122.637
0.324                  0.9992723        121.6373
0.328                   1.000181        120.6256
0.332                   1.001047         119.601
0.336                   1.001721        118.5664
0.34                    1.002088        117.5276
0.344                   1.002089        116.4929
0.348                   1.001725        115.4708
0.352                   1.001062        114.4693
0.356                   1.000217        113.4941
0.36                   0.9993377        112.5475
0.364                  0.9985769        111.6285
0.368                  0.9980666        110.7323
0.372                  0.9978944        109.8517
0.376                  0.9980889        108.9777
0.38                   0.9986139        108.1016
0.384                  0.9993758        107.2165
0.388                   1.000241        106.3182
0.392                   1.001057        105.4058
0.396                   1.001682        104.4824
0.4                     1.002009        103.5539
0.404                   1.001981        102.6281
0.408                   1.001604        101.7135
0.412                   1.000945        100.8176
0.416                   1.000119          99.946
0.42                   0.9992698        99.10081
0.424                   0.998547        98.28071
0.428                   0.998077        97.48099
0.432                  0.9979417        96.69434
0.436                  0.9981644        95.91209
0.44                   0.9987053        95.12587
0.444                  0.9994684        94.32894
0.448                   1.000319        93.51743
0.452                   1.001108        92.69102
0.456                   1.001696        91.85289
0.46                     1.00198        91.00917
0.464                   1.001911        90.16778
0.468                   1.001499        89.33719
0.472                   1.000817        88.52483
0.476                  0.9999837        87.73581
0.48                   0.9991452        86.97207
0.484                  0.9984492         86.2319
0.488                  0.9980188        85.51023
0.492                  0.9979305        84.79957
0.496                  0.9982002        84.09113
0.5                    0.9987807        83.37662
0.504                  0.9995697        82.64953
0.508                   1.000428        81.90644
0.512                   1.001203        81.14744
0.516                   1.001759        80.37623
0.52                    1.001997        79.59931
0.524                   1.001873        78.82496
0.528                   1.001408        78.06169
0.532                   1.000683        77.31688
0.536                  0.9998246        76.59537
0.54                   0.9989834        75.89864
0.544                  0.9983088        75.22445
0.548                  0.9979214        74.56719
0.552                  0.9978911        73.91887
0.556                  0.9982249        73.27051
0.56                   0.9988647        72.61372
0.564                   0.999698        71.94226
0.568                   1.000577        71.25314
0.572                   1.001347        70.54708
0.576                   1.001869        69.82842
0.58                    1.002051        69.10428
0.584                   1.001858        68.38338
0.588                   1.001322        67.67451
0.592                   1.000535        66.98496
0.596                  0.9996357        66.31923
0.6                    0.9987827        65.67823
0.604                  0.9981279        65.05901
0.608                  0.9977894        64.45522
0.612                  0.9978297        63.85824
0.616                  0.9982436        63.25865
0.62                   0.9989594        62.64803
0.624                  0.9998508        62.02038
0.628                    1.00076        61.37323
0.632                   1.001524        60.70809
0.636                   1.002007        60.03013
0.64                    1.002121        59.34728
0.644                   1.001841        58.66883
0.648                   1.001215        58.00388
0.652                    1.00035        57.35963
0.656                  0.9993978        56.74022
0.66                   0.9985278        56.14583
0.664                  0.9978958        55.57255
0.668                  0.9976167        55.01314
0.672                  0.9977428        54.45817
0.676                  0.9982549        53.89771
0.68                   0.9990635        53.32325
0.684                   1.000026        52.72909
0.688                   1.000971        52.11348
0.692                   1.001729        51.47884
0.696                   1.002163        50.83138
0.7                     1.002193        50.18001
0.704                   1.001808        49.53471
0.708                   1.001074         48.9049
0.712                   1.000116        48.29773
0.716                  0.9991041        47.71675
0.72                   0.9982175        47.16125
0.724                  0.9976167        46.62624
0.728                  0.9974122        46.10331
0.732                  0.9976442        45.58208
0.736                  0.9982751        45.05207
0.74                   0.9991947        44.50468
0.744                    1.00024        43.93463
0.748                   1.001225        43.34104
0.752                   1.001972        42.72749
0.756                   1.002345        42.10141
0.76                    1.002272        41.47282
0.764                   1.001763        40.85253
0.768                   1.000901         40.2503
0.772                  0.9998372        39.67308
0.776                  0.9987587        39.12376
0.78                   0.9978591         38.6005
0.784                  0.9973017        38.09697
0.788                  0.9971908        37.60341
0.792                  0.9975514        37.10835
0.796                   0.998323        36.60072
0.8                     0.999371        36.07185
0.804                   1.000509        35.51709
0.808                   1.001534        34.93659
0.812                    1.00226        34.33535
0.816                   1.002553        33.72225
0.82                    1.002356        33.10858
0.824                   1.001696        32.50604
0.828                   1.000686        31.92473
0.832                  0.9995007        31.37133
0.836                  0.9983506        30.84781
0.84                   0.9974429        30.35096
0.844                  0.9969441        29.87287
0.848                  0.9969492        29.40219
0.852                  0.9974635        28.92625
0.856                  0.9983996        28.43332
0.86                   0.9995933        27.91481
0.864                   1.000832        27.36684
0.868                   1.001894        26.79091
0.872                   1.002584        26.19364
0.876                   1.002775        25.58564
0.88                    1.002423        24.97963
0.884                   1.001585        24.38829
0.888                   1.000401        23.82203
0.892                  0.9990787        23.28708
0.896                  0.9978532        22.78428
0.9                    0.9969463        22.30875
0.904                  0.9965261        21.85065
0.908                  0.9966751        21.39682
0.912                  0.9973737        20.93323
0.916                  0.9985023        20.44752
0.92                   0.9998621        19.93129
0.924                    1.00121        19.38167
0.928                   1.002303         18.8018
0.932                   1.002941        18.20028
0.936                      1.003        17.58967
0.94                    1.002462        16.98436
0.944                   1.001411        16.39808
0.948                   1.000027        15.84148
0.952                  0.9985521        15.32017
0.956                  0.9972497        14.83353
0.96                   0.9963573        14.37466
0.964                  0.9960427        13.93142
0.968                  0.9963715        13.48856
0.972                  0.9972933        13.03053
0.976                  0.9986493        12.54432
0.98                      1.0002        12.02194
0.984                   1.001668         11.4618
0.988                   1.002786        10.86904
0.992                   1.003349        10.25463
0.996                   1.003244        9.633432
1                       1.002478        9.021722
1.004                   1.001175        8.434364
1.008                  0.9995582        7.882188
1.012                  0.9979113        7.369936
1.016                  0.9965303        6.895188
1.02                   0.9956696        6.448542
1.024                  0.9954939        6.015129
1.028                  0.9960465        5.577245
1.032                  0.9972387         5.11762
1.036                  0.9988643         4.62264
1.04                    1.000635        4.084879
1.044                   1.002234         3.50444
1.048                    1.00337        2.888925
1.052                   1.003828        2.252112
1.056                   1.003514        1.611601
1.06                    1.002467       0.9858477
1.064                   1.000858       0.3909935
1.068                   0.998964      -0.1620241
1.072                  0.9971176      -0.6696093
1.076                  0.9956531       -1.136464
1.08                   0.9948427       -1.575058
1.084                  0.9948457       -2.003576
1.088                  0.9956764       -2.442653
1.092                  0.9971982       -2.911528
1.096                  0.9991467       -3.424434
1.1                     1.001176       -3.987956
1.104                    1.00292        -4.59985
1.108                    1.00406        -5.24951
1.112                   1.004376       -5.919688
1.116                   1.003793       -6.589483
1.12                    1.002393       -7.237859
1.124                   1.000406       -7.847194
1.128                  0.9981717       -8.406488
1.132                   0.996086        -8.91362
1.136                  0.9945274       -9.376189
1.14                   0.9937896       -9.810507
1.144                  0.9940233       -10.23888
1.148                  0.9952049       -10.68556
1.152                  0.9971379       -11.17213
1.156                  0.9994848       -11.71349
1.16                    1.001828        -12.3151
1.164                   1.003744       -12.97199
1.168                   1.004876       -13.66972
1.172                   1.005002       -14.38679
1.176                   1.004071       -15.09823
1.18                     1.00222       -15.77974
1.184                  0.9997508       -16.41181
1.188                  0.9970878        -16.9834
1.192                  0.9947024       -17.49429
1.196                  0.9930316        -17.9558
1.2                    0.9923949       -18.38919
1.204                   0.992932       -18.82209
1.208                  0.9945707       -19.28335
1.212                  0.9970364       -19.79759
1.216                  0.9998979       -20.38053
1.22                    1.002645       -21.03612
1.224                   1.004778       -21.75589
1.228                   1.005896        -22.5205
1.232                   1.005769       -23.30294
1.236                   1.004378       -24.07293
1.24                    1.001928       -24.80187
1.244                  0.9988201        -25.4677
1.248                  0.9955852       -26.05915
1.252                  0.9927984       -26.57844
1.256                  0.9909749       -27.04175
1.26                   0.9904719         -27.477
1.264                  0.9914159       -27.91901
1.268                  0.9936709       -28.40298
1.272                  0.9968576       -28.95771
1.276                   1.000419       -29.60011
1.28                    1.003718       -30.33223
1.284                   1.006151       -31.14096
1.288                   1.007252       -32.00044
1.292                   1.006775        -32.8762
1.296                   1.004742       -33.73063
1.3                     1.001451       -34.52894
1.304                  0.9974303       -35.24518
1.308                   0.993366       -35.86731
1.312                  0.9899811       -36.40056
1.316                  0.9879082       -36.86777
1.32                   0.9875655       -37.30636
1.324                  0.9890679        -37.7617
1.328                  0.9921938       -38.27847
1.332                  0.9964171       -38.89187
1.336                   1.000998       -39.62102
1.34                    1.005114       -40.46561
1.344                   1.008003       -41.40628
1.348                   1.009091       -42.40794
1.352                     1.0081       -43.42532
1.356                   1.005098       -44.40976
1.36                    1.000505       -45.31672
1.364                  0.9950436       -46.11333
1.368                  0.9896297       -46.78522
1.372                   0.985225       -47.34107
1.376                  0.9826609       -47.81348
1.38                    0.982472        -48.2547
1.384                  0.9847765       -48.72737
1.388                  0.9892339       -49.29228
1.392                  0.9950937       -49.99621
1.396                   1.001326       -50.86308
1.4                     1.006799       -51.89015
1.404                   1.010475       -53.04912
1.408                   1.011582       -54.29102
1.412                   1.009747       -55.55343
1.416                   1.005076       -56.76911
1.42                   0.9981643       -57.87561
1.424                   0.990035        -58.8257
1.428                  0.9820057        -59.5974
1.432                  0.9754796       -60.20222
1.436                  0.9716922       -60.68804
1.44                   0.9714541       -61.13407
1.444                   0.974955       -61.63711
1.448                  0.9816869       -62.29188
1.452                  0.9905111       -63.17153
1.456                  0.9998508       -64.31403
1.46                    1.007961       -65.71696
1.464                   1.013212       -67.34001
1.468                   1.014344       -69.11223
1.472                   1.010673       -70.94144
1.476                   1.002218       -72.72461
1.48                   0.9897673       -74.35995
1.484                  0.9748465       -75.76148
1.488                  0.9595761       -76.87731
1.492                  0.9463938       -77.70978
1.496                  0.9376382       -78.33124
1.5                    0.9350437       -78.88624
1.504                  0.9392717       -79.57145
1.508                   0.949634       -80.59632
1.512                  0.9641154       -82.13911
1.516                  0.9796715         -84.317
1.52                   0.9926782       -87.17834
1.524                  0.9993885       -90.71282
1.528                  0.9963065       -94.86906
1.532                  0.9804524       -99.57124
1.536                  0.9495303       -104.7306
1.54                   0.9020216       -110.2504
1.544                  0.8372272        -116.025
1.548                  0.7552716       -121.9303
1.552                  0.6570877       -127.7997
1.556                  0.5443968       -133.3619
1.56                   0.4197521       -138.0584
1.564                  0.2869266       -140.3346
1.568                  0.1539642       -133.3106
1.572                 0.07764761        -71.0791
1.576                   0.176296       -23.64527
1.58                   0.3106335       -19.51388
1.584                  0.4427556       -22.47564
1.588                  0.5659801        -27.4547
1.592                  0.6767638       -33.18317
1.596                  0.7726444       -39.17742
1.6                    0.8519668       -45.19162
1.604                  0.9138653       -51.06841
1.608                  0.9582899       -56.68652
1.612                  0.9860281        -61.9397
1.616                  0.9987034       -66.72869
1.62                   0.9987375       -70.96078
1.624                  0.9892588       -74.55602
1.628                    0.97393       -77.46028
1.632                  0.9566709       -79.66419
1.636                  0.9412544       -81.22339
1.64                   0.9308092       -82.26969
1.644                  0.9273301       -83.00152
1.648                  0.9313625       -83.64834
1.652                  0.9420039       -84.42057
1.656                   0.957231       -85.46669
1.66                   0.9744269       -86.85428
1.664                  0.9909248        -88.5754
1.668                   1.004441       -90.56608
1.672                   1.013356       -92.72831
1.676                   1.016849       -94.94894
1.68                     1.01493       -97.11429
1.684                   1.008375       -99.12193
1.688                  0.9985945       -100.8914
1.692                  0.9874242        -102.375
1.696                  0.9768562       -103.5664
1.7                    0.9687232       -104.5058
1.704                  0.9643874       -105.2758
1.708                  0.9645004       -105.9869
1.712                  0.9689022       -106.7545
1.716                  0.9766913       -107.6755
1.72                   0.9864404       -108.8101
1.724                  0.9964902       -110.1757
1.728                   1.005246       -111.7498
1.732                   1.011424       -113.4794
1.736                   1.014213       -115.2922
1.74                    1.013364       -117.1084
1.744                    1.00919       -118.8508
1.748                   1.002508       -120.4548
1.752                  0.9945061       -121.8768
1.756                  0.9865645       -123.1019
1.76                   0.9800311       -124.1477
1.764                  0.9759953        -125.063
1.768                  0.9750964       -125.9197
1.772                   0.977414       -126.7992
1.776                  0.9824692       -127.7757
1.78                   0.9893355       -128.9027
1.784                  0.9968254       -130.2045
1.788                   1.003707       -131.6752
1.792                   1.008906       -133.2825
1.796                   1.011661       -134.9755
1.8                     1.011622       -136.6932
1.804                   1.008886       -138.3731
1.808                    1.00397         -139.96
1.812                  0.9977257       -141.4131
1.816                  0.9912126       -142.7131
1.82                   0.9855248       -143.8658
1.824                  0.9816101       -144.9025
1.828                  0.9801053       -145.8751
1.832                  0.9812246        -146.847
1.836                  0.9847284       -147.8804
1.84                   0.9899773       -149.0246
1.844                  0.9960609        -150.308
1.848                   1.001964       -151.7345
1.852                   1.006737       -153.2846
1.856                   1.009646       -154.9211
1.86                    1.010271       -156.5947
1.864                   1.008563       -158.2524
1.868                   1.004842       -159.8443
1.872                  0.9997444       -161.3309
1.876                  0.9941236       -162.6892
1.88                   0.9889175       -163.9169
1.884                  0.9849928       -165.0336
1.888                  0.9829969       -166.0783
1.892                  0.9832447       -167.1028
1.896                  0.9856637       -168.1618
1.9                    0.9898148       -169.3024
1.904                  0.9949774       -170.5562
1.908                   1.000283       -171.9344
1.912                   1.004865        -173.427
1.916                   1.007996       -175.0065
1.92                    1.009198       -176.6325
1.924                   1.008308       -178.2581
1.928                   1.005496       -179.8371
1.932                   1.001238        178.6697
1.936                  0.9962417        177.2887
1.94                    0.991336        176.0286
1.944                  0.9873375        174.8787
1.948                  0.9849113        173.8092
1.952                   0.984456        172.7769
1.956                  0.9860318        171.7323
1.96                   0.9893528        170.6293
1.964                  0.9938436        169.4335
1.968                  0.9987448        168.1277
1.972                   1.003246         166.714
1.976                   1.006619        165.2124
1.98                    1.008331        163.6565
1.984                   1.008123        162.0882
1.988                   1.006043        160.5513
1.992                    1.00244        159.0855
1.996                  0.9979073        157.7201
2                      0.9931942        156.4693
2.004                  0.9890845        155.3294
2.008                  0.9862659        154.2781
2.012                  0.9852104        153.2786
2.016                  0.9860896        152.2853
2.02                   0.9887442        151.2526
2.024                   0.992715        150.1431
2.028                  0.9973279        148.9346
2.032                   1.001813        147.6224
2.036                   1.005433          146.22
2.04                    1.007604        144.7555
2.044                   1.007978        143.2671
2.048                     1.0065         141.797
2.052                   1.003413        140.3857
2.056                   0.999218        139.0653
2.06                   0.9946049        137.8551
2.064                  0.9903382        136.7572
2.068                  0.9871336        135.7557
2.072                  0.9855329        134.8188
2.076                   0.985808        133.9037
2.08                    0.987909        132.9647
2.084                  0.9914745        131.9614
2.088                  0.9958972        130.8665
2.092                   1.000433        129.6695
2.096                   1.004327         128.378
2.1                     1.006937        127.0155
2.104                   1.007834        125.6174
2.108                   1.006865        124.2253
2.112                   1.004179        122.8807
2.116                   1.000204        121.6192
2.12                   0.9955835        120.4648
2.124                  0.9910787        119.4254
2.128                  0.9874439        118.4907
2.132                  0.9852975        117.6328
2.136                  0.9850103        116.8107
2.14                    0.986636        115.9779
2.144                  0.9898994        115.0903
2.148                  0.9942458         114.115
2.152                  0.9989401        113.0356
2.156                   1.003193        111.8541
2.16                    1.006293        110.5902
2.164                   1.007717        109.2771
2.168                   1.007213        107.9567
2.172                   1.004837        106.6729
2.176                   1.000951        105.4656
2.18                   0.9961705        104.3643
2.184                  0.9912714         103.383
2.188                  0.9870691        102.5169
2.192                  0.9842799        101.7419
2.196                  0.9833914        101.0179
2.2                     0.984571        100.2956
2.204                  0.9876301        99.52578
2.208                  0.9920549        98.66847
2.212                  0.9970977        97.69988
2.216                   1.001906        96.61603
2.22                    1.005664         95.4326
2.224                   1.007725        94.18172
2.228                   1.007711        92.90676
2.232                   1.005571        91.65593
2.236                     1.0016        90.47555
2.24                   0.9963957        89.40298
2.244                    0.99078        88.46038
2.248                  0.9856724        87.64979
2.252                  0.9819392        86.95109
2.256                  0.9802389        86.32386
2.26                   0.9808958        85.71381
2.264                  0.9838313        85.06261
2.268                  0.9885689        84.31893
2.272                  0.9943158         83.4479
2.276                   1.000098        82.43679
2.28                    1.004923        81.29628
2.284                   1.007939        80.05789
2.288                   1.008568        78.76878
2.292                   1.006598        77.48504
2.296                    1.00222         76.2641
2.3                    0.9960262        75.15675
2.304                  0.9889295        74.19899
2.308                  0.9820453        73.40463
2.312                   0.976516        72.76016
2.316                  0.9733145        72.22388
2.32                   0.9730559        71.73104
2.324                  0.9758631        71.20483
2.328                  0.9813215          70.571
2.332                   0.988537        69.77207
2.336                  0.9962825        68.77746
2.34                    1.003198        67.58752
2.344                   1.008005        66.23219
2.348                   1.009698        64.76569
2.352                   1.007699        63.25931