! TOUCHSTONE file generated by CST MICROWAVE STUDIO
! Date and time: Tue Jun  7 21:11:31 2022
! Project name: AppElm_antenne_patch_FR4.cst
! Parameters = {L=45; W=58.5; e=0.035; h=1.6; lambda=0.190476; ls=120; w0=1.6; w1=0.533333; ws=102; y0=20; y1=23.81}
! Header version: 2018
! Port assignment regex: !\s*Touchstone port\s*([0-9]+)\s*=\s*(CST MWS port|CST DS port)\s*([0-9]+|Zmin|Zmax)\s*\(\"(.*)\"\)(\s*mode\s*([0-9]+))?.*
! Touchstone port assignment:
! Touchstone port 1 = CST MWS port 1 ("")
# GHz S MA R 50
0                      0.9891925              -0
0.004                  0.9898353       -9.927092
0.008                  0.9916754       -19.76721
0.012                  0.9944614       -29.43763
0.016                  0.9978176       -38.86341
0.02                    1.001299       -47.97983
0.024                   1.004455       -56.73356
0.028                   1.006892       -65.08281
0.032                   1.008322       -72.99684
0.036                     1.0086       -80.45529
0.04                    1.007738       -87.44766
0.044                   1.005899       -93.97295
0.048                   1.003373       -100.0397
0.052                   1.000535       -105.6662
0.056                  0.9977894       -110.8795
0.06                    0.995516       -115.7153
0.064                  0.9940124       -120.2156
0.068                  0.9934542        -124.426
0.072                  0.9938714       -128.3923
0.076                  0.9951489       -132.1571
0.08                   0.9970514       -135.7563
0.084                   0.999262       -139.2173
0.088                   1.001436       -142.5579
0.092                   1.003251       -145.7868
0.096                   1.004456       -148.9052
0.1                     1.004904       -151.9089
0.104                   1.004566       -154.7909
0.108                   1.003535       -157.5444
0.112                   1.002003        -160.165
0.116                   1.000232       -162.6529
0.12                   0.9985106       -165.0138
0.124                  0.9971076        -167.259
0.128                  0.9962324       -169.4051
0.132                  0.9960022       -171.4716
0.136                  0.9964272       -173.4787
0.14                   0.9974117        -175.445
0.144                  0.9987745       -177.3851
0.148                   1.000281        -179.308
0.152                   1.001683        178.7834
0.156                    1.00276        176.8919
0.16                     1.00335        175.0249
0.164                   1.003376        173.1923
0.168                   1.002853         171.405
0.172                   1.001886        169.6723
0.176                   1.000646        168.0004
0.18                   0.9993451        166.3911
0.184                  0.9981986        164.8412
0.188                   0.997391         163.343
0.192                  0.9970465        161.8851
0.196                  0.9972088        160.4545
0.2                    0.9978358        159.0381
0.204                  0.9988103        157.6255
0.208                  0.9999597        156.2095
0.212                   1.001088        154.7879
0.216                   1.002008        153.3628
0.22                    1.002571        151.9406
0.224                   1.002693          150.53
0.228                   1.002363        149.1411
0.232                   1.001646        147.7831
0.236                    1.00067        146.4629
0.24                   0.9996042        145.1838
0.244                  0.9986286        143.9451
0.248                   0.997906         142.742
0.252                  0.9975532        141.5662
0.256                  0.9976226        140.4076
0.26                   0.9980938        139.2557
0.264                  0.9988788        138.1015
0.268                  0.9998383        136.9389
0.272                   1.000806        135.7655
0.276                   1.001617        134.5831
0.28                    1.002137        133.3969
0.284                   1.002281        132.2147
0.288                   1.002032        131.0456
0.292                   1.001437         129.898
0.296                   1.000601        128.7787
0.3                    0.9996711        127.6915
0.304                  0.9988059        126.6362
0.308                  0.9981532        125.6092
0.312                  0.9978224        124.6038
0.316                  0.9978661         123.611
0.32                   0.9982724        122.6217
0.324                  0.9989669        121.6279
0.328                  0.9998267        120.6239
0.332                   1.000702        119.6074
0.336                   1.001442          118.58
0.34                    1.001921        117.5463
0.344                   1.002061        116.5136
0.348                   1.001839        115.4903
0.352                   1.001298        114.4843
0.356                   1.000533         113.502
0.36                   0.9996774        112.5472
0.364                  0.9988808        111.6201
0.368                  0.9982801        110.7172
0.372                  0.9979782        109.8326
0.376                  0.9980259        108.9579
0.38                    0.998412        108.0847
0.384                  0.9990672        107.2055
0.388                  0.9998758        106.3149
0.392                   1.000696        105.4111
0.396                   1.001386        104.4953
0.4                     1.001826        103.5723
0.404                   1.001941         102.649
0.408                   1.001713        101.7333
0.412                   1.001184        100.8331
0.416                   1.000445        99.95436
0.42                   0.9996271        99.10063
0.424                  0.9988722        98.27201
0.428                  0.9983124        97.46524
0.432                  0.9980451        96.67423
0.436                  0.9981165        95.89113
0.44                    0.998513        95.10766
0.444                   0.999164        94.31664
0.448                  0.9999547        93.51319
0.452                   1.000746        92.69557
0.456                     1.0014        91.86543
0.46                    1.001802         91.0275
0.464                   1.001882        90.18872
0.468                   1.001627        89.35705
0.472                   1.001081        88.54007
0.476                   1.000341        87.74362
0.48                   0.9995352        86.97091
0.484                  0.9988062        86.22172
0.488                   0.998282        85.49257
0.492                  0.9980553        84.77722
0.496                  0.9981659        84.06778
0.5                    0.9985945        83.35607
0.504                  0.9992651        82.63511
0.508                   1.000059        81.90037
0.512                   1.000837         81.1505
0.516                    1.00146        80.38755
0.52                    1.001819         79.6166
0.524                    1.00185        78.84487
0.528                   1.001547        78.08038
0.532                   1.000962        77.33065
0.536                   1.000196        76.60129
0.54                   0.9993848        75.89516
0.544                  0.9986707        75.21157
0.548                  0.9981803        74.54661
0.552                  0.9980011        73.89363
0.556                  0.9981654        73.24447
0.56                   0.9986447        72.59092
0.564                  0.9993542        71.92618
0.568                   1.000168        71.24607
0.572                   1.000942        70.54974
0.576                   1.001539        69.83983
0.58                    1.001851        69.12196
0.584                   1.001822        68.40375
0.588                   1.001455        67.69348
0.592                   1.000814        66.99865
0.596                    1.00001        66.32464
0.6                    0.9991841        65.67381
0.604                  0.9984839        65.04489
0.608                  0.9980343        64.43328
0.612                  0.9979166        63.83176
0.616                  0.9981534        63.23177
0.62                   0.9987039        62.62497
0.624                  0.9994716        62.00468
0.628                    1.00032        61.36721
0.632                   1.001098        60.71234
0.636                   1.001668        60.04345
0.64                    1.001925        59.36689
0.644                   1.001823        58.69084
0.648                   1.001377        58.02394
0.652                   1.000663        57.37368
0.656                  0.9998075        56.74518
0.66                   0.9989605        56.14017
0.664                  0.9982736        55.55663
0.668                  0.9978709        54.98912
0.672                  0.9978261        54.42965
0.676                    0.99815        53.86914
0.68                   0.9987865        53.29906
0.684                  0.9996233        52.71297
0.688                   1.000511        52.10768
0.692                   1.001292         51.4838
0.696                   1.001825        50.84565
0.7                     1.002012        50.20045
0.704                   1.001817        49.55711
0.708                    1.00127        48.92463
0.712                   1.000466        48.31055
0.716                  0.9995456        47.71958
0.72                   0.9986711        47.15271
0.724                      0.998        46.60695
0.728                   0.997654        46.07581
0.732                  0.9976978         45.5504
0.736                  0.9981264        45.02102
0.74                   0.9988656        44.47895
0.744                  0.9997842        43.91801
0.748                   1.000718         43.3357
0.752                     1.0015        42.73362
0.756                   1.001988        42.11719
0.76                     1.00209        41.49473
0.764                   1.001785        40.87592
0.768                   1.001122        40.27022
0.772                   1.000214        39.68512
0.776                  0.9992229        39.12481
0.78                   0.9983236        38.58937
0.784                   0.997679        38.07462
0.788                  0.9974077        37.57283
0.792                   0.997562        37.07403
0.796                  0.9981181        36.56786
0.8                    0.9989792         36.0454
0.804                  0.9999926         35.5009
0.808                   1.000977        34.93268
0.812                   1.001754        34.34359
0.816                   1.002182        33.74037
0.82                     1.00218        33.13254
0.824                   1.001741        32.53075
0.828                   1.000939        31.94488
0.832                   0.999912        31.38232
0.836                  0.9988407        30.84659
0.84                   0.9979169        30.33661
0.844                  0.9973085        29.84677
0.848                  0.9971283         29.3679
0.852                  0.9974137        28.88883
0.856                  0.9981173        28.39843
0.86                    0.999116        27.88771
0.864                   1.000232        27.35142
0.868                   1.001264        26.78901
0.872                   1.002024        26.20476
0.876                   1.002372        25.60698
0.88                    1.002238        25.00661
0.884                   1.001639        24.41529
0.888                   1.000674        23.84335
0.892                   0.999511        23.29796
0.896                  0.9983549        22.78174
0.9                    0.9974137         22.2922
0.904                  0.9968597        21.82202
0.908                  0.9967981        21.36031
0.912                  0.9972458        20.89453
0.916                  0.9981275        20.41279
0.92                   0.9992887        19.90605
0.924                   1.000522        19.36981
0.928                   1.001605        18.80488
0.932                   1.002341        18.21728
0.936                    1.00259        17.61715
0.94                    1.002301        17.01703
0.944                   1.001516        16.42967
0.948                   1.000367        15.86583
0.952                  0.9990558        15.33229
0.956                  0.9978144        14.83053
0.96                   0.9968687        14.35631
0.964                  0.9963942        13.90028
0.968                  0.9964841        13.44956
0.972                  0.9971302        12.99006
0.976                  0.9982229        12.50911
0.98                   0.9995704        11.99778
0.984                   1.000932        11.45256
0.988                   1.002061        10.87596
0.992                    1.00275        10.27609
0.996                   1.002867        9.665254
1                        1.00238        9.057838
1.004                   1.001365        8.467827
1.008                   0.999994         7.90635
1.012                  0.9985058        7.379637
1.016                  0.9971663        6.887718
1.02                   0.9962195         6.42422
1.024                  0.9958432        5.977328
1.028                  0.9961145        5.531832
1.032                  0.9969933        5.071908
1.036                   0.998329        4.584053
1.04                   0.9998849        4.059608
1.044                   1.001381        3.496351
1.048                   1.002546        2.898892
1.052                   1.003161        2.277872
1.056                   1.003104        1.648134
1.06                     1.00237        1.026194
1.064                   1.001076       0.4274084
1.068                   0.999441      -0.1367462
1.072                  0.9977508      -0.6608405
1.076                  0.9963085       -1.146705
1.08                   0.9953794       -1.603375
1.084                   0.995141       -2.045675
1.088                  0.9956487       -2.491603
1.092                  0.9968228       -2.959019
1.096                  0.9984606       -3.462297
1.1                     1.000272       -4.009647
1.104                   1.001932       -4.601625
1.108                   1.003135       -5.230959
1.112                   1.003656        -5.88398
1.116                   1.003384       -6.542765
1.12                    1.002349       -7.188218
1.124                   1.000718       -7.803427
1.128                  0.9987686       -8.376561
1.132                  0.9968437       -8.903265
1.136                  0.9952907       -9.387733
1.14                   0.9943988       -9.842339
1.144                  0.9943439       -10.28563
1.148                  0.9951525         -10.739
1.152                  0.9966941       -11.22274
1.156                  0.9987015       -11.75217
1.16                    1.000818       -12.33482
1.164                   1.002662       -12.96902
1.168                   1.003892       -13.64427
1.172                    1.00427       -14.34295
1.176                   1.003705       -15.04336
1.18                    1.002271       -15.72328
1.184                   1.000198       -16.36379
1.188                  0.9978394       -16.95268
1.192                  0.9956081       -17.48696
1.196                  0.9939092       -17.97389
1.2                    0.9930618       -18.43014
1.204                   0.993239       -18.87905
1.208                  0.9944296        -19.3464
1.212                  0.9964375       -19.85553
1.216                  0.9989125       -20.42297
1.22                    1.001413        -21.0553
1.224                   1.003485       -21.74803
1.228                   1.004739        -22.4864
1.232                   1.004925       -23.24786
1.236                   1.003973       -24.00578
1.24                    1.002015       -24.73381
1.244                  0.9993652       -25.41044
1.248                   0.996473       -26.02286
1.252                  0.9938481       -26.56989
1.256                  0.9919706       -27.06283
1.26                   0.9912012       -27.52415
1.264                   0.991709       -27.98366
1.268                  0.9934336        -28.4731
1.272                  0.9960899       -29.02003
1.276                  0.9992158       -29.64261
1.28                    1.002254       -30.34625
1.284                   1.004649       -31.12267
1.288                   1.005947       -31.95144
1.292                   1.005874       -32.80328
1.296                    1.00439       -33.64481
1.3                       1.0017        -34.4439
1.304                  0.9982328       -35.17507
1.308                   0.994573       -35.82441
1.312                  0.9913656       -36.39288
1.316                  0.9892028        -36.8973
1.32                   0.9885087       -37.36827
1.324                  0.9894537       -37.84502
1.328                  0.9919106       -38.36804
1.332                  0.9954702       -38.97127
1.336                  0.9995094       -39.67552
1.34                    1.003301       -40.48481
1.344                   1.006142       -41.38571
1.348                   1.007472       -42.34978
1.352                   1.006977       -43.33808
1.356                   1.004645        -44.3071
1.36                    1.000787       -45.21561
1.364                  0.9959957       -46.03151
1.368                   0.991061       -46.73814
1.372                  0.9868444       -47.33887
1.376                  0.9841233       -47.85847
1.38                   0.9834402       -48.34025
1.384                  0.9849848       -48.83873
1.388                    0.98854       -49.40925
1.392                  0.9935084       -50.09699
1.396                  0.9990122       -50.92829
1.4                     1.004046       -51.90607
1.404                   1.007649       -53.00975
1.408                    1.00907       -54.19881
1.412                   1.007897       -55.41904
1.416                   1.004137       -56.61012
1.42                   0.9982417       -57.71456
1.424                  0.9910647       -58.68692
1.428                  0.9837473       -59.50322
1.432                  0.9775449       -60.16837
1.436                  0.9736028       -60.71962
1.44                   0.9727258       -61.22327
1.444                  0.9751919        -61.7638
1.448                  0.9806613       -62.42733
1.452                  0.9882106        -63.2842
1.456                  0.9964836       -64.37539
1.46                    1.003922       -65.70617
1.464                   1.009022       -67.24669
1.468                   1.010573       -68.93754
1.472                   1.007858       -70.69807
1.476                   1.000783       -72.43613
1.48                   0.9899476       -74.05918
1.484                  0.9766276       -75.48764
1.488                  0.9626531       -76.67107
1.492                  0.9501735       -77.60555
1.496                  0.9412975       -78.34787
1.5                    0.9376528        -79.0188
1.504                  0.9399622       -79.78848
1.508                  0.9477679       -80.84468
1.512                  0.9594013       -82.35478
1.516                  0.9722032       -84.43664
1.52                   0.9829004       -87.14728
1.524                  0.9880191       -90.48799
1.528                  0.9842465       -94.41789
1.532                  0.9686996       -98.86842
1.536                  0.9391061       -103.7538
1.54                   0.8939138        -108.976
1.544                  0.8323458       -114.4229
1.548                  0.7544228       -119.9573
1.552                  0.6609633       -125.3893
1.556                  0.5535965       -130.4072
1.56                   0.4348676       -134.3843
1.564                  0.3087914        -135.698
1.568                   0.184164       -128.4075
1.572                  0.1032024       -85.53526
1.576                  0.1668096       -34.68623
1.58                   0.2895718       -24.67535
1.584                  0.4164895       -25.31903
1.588                  0.5369706       -29.10174
1.592                  0.6465855       -34.09555
1.596                   0.742563       -39.58827
1.6                    0.8230807       -45.23744
1.604                   0.887133        -50.8394
1.608                  0.9345187       -56.24947
1.612                   0.965848       -61.34983
1.616                  0.9825354       -66.03653
1.62                   0.9867599       -70.21621
1.624                  0.9813764       -73.81018
1.628                  0.9697563       -76.76483
1.632                  0.9555333       -79.06756
1.636                  0.9422426       -80.76358
1.64                   0.9328764       -81.96591
1.644                  0.9294435       -82.84818
1.648                  0.9326673       -83.61568
1.652                  0.9419479       -84.46276
1.656                  0.9556152       -85.53373
1.66                   0.9713765       -86.90247
1.664                   0.986807       -88.57349
1.668                  0.9997653       -90.49687
1.672                   1.008676       -92.58765
1.676                   1.012684       -94.74369
1.68                    1.011696       -96.85999
1.684                   1.006341       -98.84041
1.688                  0.9978512       -100.6084
1.692                  0.9878757       -102.1166
1.696                  0.9782345       -103.3557
1.7                    0.9706312       -104.3585
1.704                  0.9663665       -105.1969
1.708                  0.9661116       -105.9694
1.712                  0.9698033       -106.7814
1.716                  0.9766902       -107.7238
1.72                   0.9855141       -108.8558
1.724                  0.9947707       -110.1981
1.728                   1.002983       -111.7343
1.732                   1.008934       -113.4186
1.736                    1.01183       -115.1859
1.74                    1.011389       -116.9628
1.744                   1.007856       -118.6776
1.748                   1.001945       -120.2691
1.752                  0.9947301       -121.6957
1.756                  0.9874727       -122.9418
1.76                    0.981421       -124.0215
1.764                  0.9775985        -124.978
1.768                  0.9766254       -125.8761
1.772                  0.9786123       -126.7902
1.776                  0.9831537       -127.7892
1.78                   0.9894228       -128.9238
1.784                  0.9963372       -130.2186
1.788                   1.002757       -131.6701
1.792                   1.007677       -133.2501
1.796                   1.010369       -134.9124
1.8                     1.010488       -136.6008
1.804                     1.0081        -138.257
1.808                   1.003667       -139.8292
1.812                  0.9979681        -141.279
1.816                  0.9919806       -142.5877
1.82                   0.9867194       -143.7599
1.824                  0.9830698       -144.8239
1.828                  0.9816331       -145.8273
1.832                  0.9826209       -146.8283
1.836                  0.9858248       -147.8847
1.84                   0.9906621       -149.0425
1.844                  0.9962935        -150.329
1.848                   1.001776       -151.7482
1.852                   1.006223        -153.283
1.856                   1.008943       -154.8987
1.86                     1.00954       -156.5496
1.864                   1.007963        -158.186
1.868                   1.004509       -159.7611
1.872                  0.9997707        -161.238
1.876                  0.9945478       -162.5953
1.88                   0.9897166       -163.8308
1.884                  0.9860865       -164.9632
1.888                  0.9842606       -166.0291
1.892                  0.9845299       -167.0768
1.896                  0.9868228       -168.1572
1.9                    0.9907241       -169.3145
1.904                  0.9955561       -170.5779
1.908                   1.000503       -171.9575
1.912                   1.004751       -173.4439
1.916                   1.007621       -175.0108
1.92                    1.008669       -176.6198
1.924                   1.007753       -178.2267
1.928                   1.005044        -179.788
1.932                   1.001001        178.7331
1.936                  0.9963008        177.3607
1.94                    0.991728        176.1021
1.944                  0.9880495        174.9459
1.948                  0.9858818        173.8635
1.952                  0.9855839        172.8134
1.956                  0.9871926        171.7488
1.96                   0.9904187        170.6267
1.964                  0.9947023        169.4155
1.968                  0.9993165        168.1001
1.972                   1.003494        166.6837
1.976                   1.006553        165.1862
1.98                    1.008006        163.6407
1.984                   1.007629        162.0873
1.988                   1.005494        160.5678
1.992                   1.001958        159.1193
1.996                  0.9976077        157.7686
2                      0.9931656        156.5274
2.004                   0.989376        155.3902
2.008                   0.986878        154.3342
2.012                  0.9860928        153.3227
2.016                  0.9871476        152.3119
2.02                   0.9898534        151.2587
2.024                  0.9937406        150.1291
2.028                   0.998145        148.9036
2.032                   1.002326        147.5802
2.036                    1.00559        146.1737
2.04                    1.007401        144.7129
2.044                   1.007465        143.2354
2.048                   1.005773        141.7821
2.052                   1.002599         140.391
2.056                  0.9984638        139.0915
2.06                   0.9940506        137.8995
2.064                  0.9900982        136.8142
2.068                  0.9872756        135.8171
2.072                   0.986065        134.8753
2.076                  0.9866732        133.9463
2.08                   0.9889932        132.9863
2.084                  0.9926238        131.9584
2.088                  0.9969419         130.839
2.092                   1.001215        129.6215
2.096                   1.004723        128.3165
2.1                     1.006881        126.9499
2.104                   1.007326        125.5578
2.108                   1.005976         124.181
2.112                   1.003039        122.8593
2.116                  0.9989891        121.6251
2.12                   0.9944919        120.4983
2.124                  0.9902977         119.482
2.128                  0.9871195        118.5618
2.132                  0.9855059        117.7066
2.136                  0.9857404        116.8743
2.14                    0.987787        116.0193
2.144                   0.991295         115.101
2.148                   0.995662        114.0914
2.152                   1.000141        112.9794
2.156                   1.003971        111.7724
2.16                    1.006499        110.4941
2.164                   1.007289        109.1802
2.168                   1.006186         107.873
2.172                   1.003345         106.615
2.176                   0.999211        105.4427
2.18                   0.9944511        104.3803
2.184                  0.9898544        103.4353
2.188                  0.9862009        102.5963
2.192                  0.9841252        101.8333
2.196                  0.9839982         101.103
2.2                    0.9858548         100.356
2.204                  0.9893822        99.54646
2.208                  0.9939752        98.64075
2.212                  0.9988434        97.62291
2.216                   1.003149        96.49688
2.22                    1.006144        95.28516
2.224                   1.007295        94.02461
2.228                   1.006362         92.7607
2.232                   1.003445         91.5408
2.236                  0.9989719        90.40729
2.24                   0.9936427        89.39071
2.244                  0.9883235        88.50404
2.248                  0.9839089        87.73906
2.252                  0.9811659        87.06596
2.256                  0.9805908        86.43769
2.26                    0.982309        85.79795
2.264                  0.9860426        85.09201
2.268                  0.9911544        84.27706
2.272                  0.9967606        83.32985
2.276                   1.001882        82.25008
2.28                    1.005608         81.0596
2.284                   1.007241        79.79823
2.288                   1.006413        78.51772
2.292                    1.00314        77.27434
2.296                  0.9978418        76.12102
2.3                    0.9912868        75.09928
2.304                  0.9844939         74.2314
2.308                  0.9785745        73.51469
2.312                  0.9745456        72.91878
2.316                  0.9731388        72.38876
2.32                   0.9746475        71.85382
2.324                  0.9788517        71.24063
2.328                    0.98504        70.48764
2.332                  0.9921281        69.55631
2.336                  0.9988404        68.43725
2.34                    1.003917        67.15055
2.344                   1.006312        65.74148
2.348                   1.005354        64.27395
2.352                   1.000856        62.82219