! TOUCHSTONE file generated by CST MICROWAVE STUDIO
! Date and time: Tue Jun  7 21:11:38 2022
! Project name: AppElm_antenne_patch_FR4.cst
! Parameters = {L=45; W=58.5; e=0.035; h=1.6; lambda=0.190476; ls=120; w0=1.6; w1=0.533333; ws=144; y0=20; y1=23.81}
! Header version: 2018
! Port assignment regex: !\s*Touchstone port\s*([0-9]+)\s*=\s*(CST MWS port|CST DS port)\s*([0-9]+|Zmin|Zmax)\s*\(\"(.*)\"\)(\s*mode\s*([0-9]+))?.*
! Touchstone port assignment:
! Touchstone port 1 = CST MWS port 1 ("")
# GHz S MA R 50
0                       0.989485              -0
0.004                  0.9901186        -9.93426
0.008                  0.9919311       -19.78118
0.012                  0.9946727       -29.45769
0.016                   0.997969       -38.88853
0.02                    1.001378       -48.00871
0.024                   1.004454       -56.76467
0.028                   1.006809       -65.11452
0.032                   1.008161       -73.02749
0.036                   1.008373        -80.4833
0.04                    1.007464       -87.47167
0.044                   1.005605       -93.99202
0.048                   1.003089       -100.0534
0.052                   1.000292       -105.6746
0.056                  0.9976178       -110.8836
0.06                   0.9954372       -115.7166
0.064                  0.9940383        -120.216
0.068                  0.9935827       -124.4277
0.072                  0.9940867       -128.3973
0.076                  0.9954233       -132.1671
0.08                   0.9973471       -135.7721
0.084                  0.9995377       -139.2389
0.088                   1.001652       -142.5845
0.092                   1.003376       -145.8168
0.096                    1.00447       -148.9365
0.1                     1.004803       -151.9389
0.104                   1.004362       -154.8173
0.108                   1.003256       -157.5651
0.112                   1.001689       -160.1788
0.116                  0.9999292       -162.6595
0.12                   0.9982634       -165.0137
0.124                  0.9969539        -167.254
0.128                  0.9961962       -169.3976
0.132                  0.9960896       -171.4643
0.136                  0.9966249       -173.4743
0.14                   0.9976895       -175.4458
0.144                  0.9990893       -177.3924
0.148                   1.000584       -179.3221
0.152                   1.001927        178.7634
0.156                   1.002907        176.8677
0.16                    1.003377         174.999
0.164                    1.00328        173.1677
0.168                    1.00265        171.3842
0.172                   1.001609        169.6575
0.176                   1.000341        167.9928
0.18                   0.9990616        166.3908
0.184                  0.9979843        164.8471
0.188                  0.9972826        163.3531
0.192                  0.9970629        161.8967
0.196                  0.9973486        160.4645
0.2                    0.9980774        159.0439
0.204                  0.9991144         157.625
0.208                   1.000277        156.2019
0.212                   1.001367        154.7735
0.216                   1.002202         153.343
0.22                    1.002649        151.9177
0.224                    1.00264         150.507
0.228                   1.002188        149.1209
0.232                   1.001377        147.7682
0.236                   1.000351         146.455
0.24                   0.9992866        145.1837
0.244                  0.9983652        143.9521
0.248                  0.9977402        142.7542
0.252                  0.9975124         141.581
0.256                  0.9977135        140.4219
0.26                   0.9983008        139.2665
0.264                   0.999167        138.1064
0.268                   1.000159        136.9366
0.272                   1.001105        135.7559
0.276                   1.001843        134.5673
0.28                    1.002252        133.3771
0.284                   1.002266        132.1938
0.288                   1.001889        131.0267
0.292                   1.001188        129.8839
0.296                    1.00029        128.7714
0.3                    0.9993488        127.6919
0.304                  0.9985279         126.644
0.308                  0.9979669        125.6228
0.312                    0.99776        124.6204
0.316                  0.9979388        123.6277
0.32                   0.9984683        122.6353
0.324                  0.9992526        121.6357
0.328                   1.000154        120.6243
0.332                   1.001014        119.6002
0.336                   1.001686        118.5661
0.34                    1.002055        117.5279
0.344                   1.002059        116.4936
0.348                   1.001702        115.4718
0.352                   1.001047        114.4705
0.356                    1.00021        113.4952
0.36                   0.9993367        112.5484
0.364                  0.9985793         111.629
0.368                  0.9980693        110.7325
0.372                  0.9978941        109.8514
0.376                  0.9980829        108.9772
0.38                   0.9986004        108.1011
0.384                   0.999355        107.2162
0.388                   1.000214        106.3181
0.392                   1.001026        105.4062
0.396                   1.001652        104.4834
0.4                     1.001982        103.5554
0.404                   1.001961          102.63
0.408                   1.001594        101.7157
0.412                   1.000946        100.8199
0.416                    1.00013        99.94805
0.42                   0.9992897        99.10245
0.424                  0.9985721        98.28181
0.428                   0.998103        97.48149
0.432                  0.9979647        96.69426
0.436                  0.9981807         95.9116
0.44                   0.9987126        95.12515
0.444                  0.9994663        94.32823
0.448                   1.000309        93.51699
0.452                   1.001092        92.69103
0.456                   1.001678        91.85346
0.46                    1.001965        91.01027
0.464                   1.001903        90.16935
0.468                   1.001501        89.33905
0.472                   1.000831        88.52669
0.476                   1.000009        87.73744
0.48                   0.9991791        86.97321
0.484                  0.9984882        86.23236
0.488                  0.9980582        85.50997
0.492                  0.9979654        84.79861
0.496                  0.9982266        84.08962
0.5                    0.9987957        83.37482
0.504                  0.9995725        82.64772
0.508                    1.00042        81.90488
0.512                   1.001187        81.14637
0.516                   1.001739        80.37576
0.52                    1.001978        79.59947
0.524                   1.001861        78.82564
0.528                   1.001406        78.06269
0.532                   1.000692        77.31794
0.536                  0.9998441        76.59618
0.54                   0.9990113        75.89893
0.544                  0.9983407        75.22405
0.548                  0.9979519        74.56603
0.552                   0.997915        73.91703
0.556                  0.9982375        73.26816
0.56                   0.9988634        72.61115
0.564                  0.9996818        71.93982
0.568                   1.000548        71.25112
0.572                   1.001309        70.54576
0.576                   1.001828        69.82793
0.58                    1.002012        69.10461
0.584                   1.001827        68.38442
0.588                   1.001303          67.676
0.592                    1.00053        66.98655
0.596                   0.999644        66.32061
0.6                    0.9988014        65.67908
0.604                   0.998152        65.05912
0.608                  0.9978128        64.45453
0.612                  0.9978464        63.85682
0.616                  0.9982484        63.25674
0.62                   0.9989494        62.64593
0.624                  0.9998255        62.01848
0.628                   1.000722        61.37188
0.632                   1.001478        60.70755
0.636                   1.001959        60.03055
0.64                    1.002077        59.34864
0.644                   1.001809        58.67098
0.648                   1.001198        58.00648
0.652                   1.000351        57.36231
0.656                  0.9994156        56.74258
0.66                   0.9985587         56.1475
0.664                  0.9979335        55.57332
0.668                  0.9976541        55.01293
0.672                  0.9977731        54.45708
0.676                  0.9982723        53.89602
0.68                   0.9990649         53.3213
0.684                   1.000011        52.72733
0.688                   1.000942        52.11227
0.692                   1.001692        51.47851
0.696                   1.002126        50.83205
0.7                     1.002162        50.18163
0.704                   1.001791        49.53706
0.708                   1.001074        48.90762
0.712                   1.000136        48.30036
0.716                  0.9991411        47.71885
0.72                   0.9982671        47.16245
0.724                  0.9976718         46.6263
0.728                  0.9974643         46.1022
0.732                  0.9976855        45.57996
0.736                  0.9982993         45.0493
0.74                   0.9991988        44.50168
0.744                   1.000225        43.93192
0.748                   1.001194        43.33905
0.752                   1.001931        42.72653
0.756                   1.002304        42.10161
0.76                     1.00224        41.47408
0.764                   1.001746        40.85456
0.768                   1.000904        40.25266
0.772                  0.9998616        39.67526
0.776                  0.9988016        39.12524
0.78                   0.9979141        38.60087
0.784                  0.9973603        38.09601
0.788                  0.9972432         37.6011
0.792                  0.9975884        37.10494
0.796                   0.998338        36.59665
0.8                    0.9993611        36.06765
0.804                   1.000475        35.51334
0.808                   1.001481         34.9338
0.812                   1.002197        34.33385
0.816                    1.00249        33.72214
0.82                    1.002302        33.10974
0.824                    1.00166        32.50812
0.828                   1.000672        31.92722
0.832                  0.9995099        31.37364
0.836                  0.9983795        30.84938
0.84                    0.997484        30.35139
0.844                  0.9969874        29.87192
0.848                   0.996984        29.39992
0.852                  0.9974804        28.92297
0.856                  0.9983923        28.42954
0.86                   0.9995597        27.91117
0.864                   1.000775        27.36396
0.868                   1.001819        26.78929
0.872                   1.002504         26.1936
0.876                   1.002699        25.58721
0.88                    1.002364        24.98258
0.884                    1.00155        24.39215
0.888                   1.000395        23.82614
0.892                  0.9991019        23.29075
0.896                  0.9978993        22.78687
0.9                    0.9970055         22.3098
0.904                   0.996586        21.84997
0.908                   0.996723        21.39455
0.912                  0.9973987         20.9298
0.916                  0.9984978        20.44357
0.92                   0.9998265        19.92759
0.924                   1.001148        19.37895
0.928                   1.002223        18.80064
0.932                   1.002854        18.20098
0.936                   1.002923        17.59224
0.94                    1.002405        16.98849
0.944                   1.001385        16.40317
0.948                   1.000036        15.84676
0.952                  0.9985941        15.32482
0.956                   0.997318        14.83683
0.96                   0.9964401        14.37611
0.964                  0.9961257        13.93086
0.968                  0.9964403        13.48618
0.972                  0.9973362        13.02685
0.976                  0.9986596        12.54011
0.98                    1.000177        12.01803
0.984                   1.001617        11.45898
0.988                   1.002719         10.8679
0.992                   1.003279        10.25543
0.996                   1.003187        9.636079
1                       1.002447        9.025761
1.004                   1.001179         8.43906
1.008                   0.999599        7.886636
1.012                  0.9979854        7.373225
1.016                  0.9966272        6.896563
1.02                   0.9957739        6.447563
1.024                  0.9955882        6.011759
1.028                  0.9961143        5.571876
1.032                  0.9972676        5.111015
1.036                  0.9988483        4.615796
1.04                    1.000576        4.078854
1.044                   1.002141        3.500166
1.048                   1.003257        2.887044
1.052                   1.003715        2.252866
1.056                   1.003419        1.614789
1.06                    1.002406       0.9908461
1.064                   1.000842       0.3968513
1.068                  0.9989943      -0.1564318
1.072                  0.9971891      -0.6653905
1.076                  0.9957526       -1.134509
1.08                   0.9949513       -1.575869
1.084                  0.9949426       -2.007161
1.088                  0.9957424       -2.448513
1.092                  0.9972195       -2.918744
1.096                  0.9991169       -3.431837
1.1                     1.001098       -3.994339
1.104                   1.002805       -4.604194
1.108                   1.003926       -5.251094
1.112                   1.004244       -5.918377
1.116                   1.003683        -6.58555
1.12                    1.002323       -7.232095
1.124                   1.000385       -7.840691
1.128                  0.9982012       -8.400542
1.132                  0.9961567       -8.909427
1.136                  0.9946223       -9.374641
1.14                   0.9938861       -9.812006
1.144                  0.9940976       -10.24323
1.148                  0.9952368       -10.69198
1.152                   0.997114       -11.17941
1.156                   0.999402       -11.72019
1.16                    1.001694        -12.3198
1.164                   1.003575       -12.97357
1.168                   1.004698       -13.66755
1.172                   1.004842       -14.38085
1.176                   1.003954       -15.08912
1.18                    1.002166       -15.76862
1.184                  0.9997703       -16.40024
1.188                  0.9971788       -16.97308
1.192                  0.9948511        -17.4868
1.196                  0.9932137       -17.95226
1.2                    0.9925802       -18.39008
1.204                  0.9930892        -18.8271
1.208                  0.9946733       -19.29145
1.212                   0.997067       -19.80721
1.216                  0.9998523       -20.38983
1.22                    1.002532       -21.04333
1.224                   1.004619       -21.75962
1.228                    1.00572       -22.51996
1.232                   1.005607       -23.29808
1.236                   1.004262       -24.06447
1.24                    1.001881       -24.79115
1.244                  0.9988518       -25.45652
1.248                  0.9956931       -26.04948
1.252                  0.9929651       -26.57202
1.256                  0.9911715       -27.03978
1.26                   0.9906632       -27.47985
1.264                  0.9915662       -27.92615
1.268                  0.9937518         -28.413
1.272                  0.9968534       -28.96863
1.276                    1.00033       -29.60973
1.28                     1.00356       -30.33853
1.284                   1.005954       -31.14252
1.288                   1.007054        -31.9966
1.292                   1.006617       -32.86728
1.296                   1.004661       -33.71786
1.3                     1.001471       -34.51436
1.304                  0.9975616       -35.23134
1.308                   0.993597       -35.85688
1.312                  0.9902824       -36.39584
1.316                  0.9882354       -36.87025
1.32                   0.9878662       -37.31632
1.324                  0.9892912       -37.77811
1.328                  0.9922994       -38.29911
1.332                   0.996383       -38.91376
1.336                   1.000824       -39.64093
1.34                    1.004823       -40.48061
1.344                   1.007636       -41.41418
1.348                   1.008703       -42.40767
1.352                   1.007747       -43.41703
1.356                   1.004833       -44.39486
1.36                    1.000367       -45.29769
1.364                    0.99505       -46.09343
1.368                  0.9897737       -46.76793
1.372                  0.9854739       -47.32956
1.376                  0.9829621       -47.80987
1.38                   0.9827617        -48.2596
1.384                  0.9849918       -48.73969
1.388                  0.9893251       -49.30941
1.392                  0.9950347       -50.01452
1.396                   1.001119       -50.87867
1.4                     1.006474       -51.89958
1.404                   1.010087       -53.04998
1.408                     1.0112       -54.28231
1.412                   1.009444        -55.5358
1.416                   1.004917       -56.74485
1.42                   0.9981936       -57.84854
1.424                  0.9902659       -58.80064
1.428                  0.9824144       -59.57956
1.432                  0.9760042       -60.19619
1.436                  0.9722393       -60.69665
1.44                   0.9719133       -61.15758
1.444                  0.9752189       -61.67282
1.448                  0.9816714       -62.33447
1.452                  0.9901718       -63.21404
1.456                  0.9991923       -64.34904
1.46                    1.007037       -65.73777
1.464                    1.01212       -67.34151
1.468                   1.013213       -69.09141
1.472                   1.009647       -70.89777
1.476                   1.001442       -72.66027
1.48                   0.9893668       -74.27998
1.484                  0.9749079       -75.67378
1.488                  0.9601286       -76.79215
1.492                  0.9473962       -77.63855
1.496                  0.9389749       -78.28455
1.5                    0.9365367       -78.87118
1.504                  0.9407084       -79.58966
1.508                  0.9508062       -80.64345
1.512                  0.9648558       -82.20597
1.516                  0.9798779       -84.39186
1.52                   0.9923228       -87.24916
1.524                   0.998513       -90.76866
1.528                  0.9950105       -94.90065
1.532                  0.9788782       -99.57092
1.536                  0.9478483       -104.6917
1.54                   0.9004166       -110.1668
1.544                  0.8358861       -115.8903
1.548                  0.7543749       -121.7365
1.552                  0.6568014       -127.5357
1.556                  0.5448711       -133.0106
1.56                   0.4211275       -137.5913
1.564                  0.2893664       -139.7053
1.568                  0.1577472       -132.5809
1.572                 0.08053456       -73.59442
1.576                  0.1742724       -25.03875
1.58                   0.3070717       -20.13243
1.584                  0.4383927       -22.79088
1.588                  0.5611525       -27.60629
1.592                  0.6717305       -33.22882
1.596                  0.7676429       -39.14691
1.6                    0.8472228       -45.10311
1.604                  0.9095888       -50.93482
1.608                  0.9546674       -56.51847
1.612                  0.9832116       -61.74721
1.616                  0.9967985       -66.52221
1.62                   0.9977912       -70.75181
1.624                  0.9892464       -74.35737
1.628                  0.9747473       -77.28554
1.632                  0.9581318        -79.5264
1.636                  0.9431026       -81.13258
1.64                   0.9327472       -82.23015
1.644                  0.9290637       -83.00981
1.648                  0.9326513       -83.69364
1.652                  0.9426991       -84.48715
1.656                  0.9572915       -85.53788
1.66                   0.9739104       -86.91561
1.664                  0.9899634       -88.61651
1.668                   1.003211       -90.58113
1.672                    1.01205       -92.71567
1.676                    1.01565       -94.91052
1.68                    1.013991       -97.05489
1.684                   1.007804       -99.04857
1.688                  0.9984438       -100.8127
1.692                  0.9876829       -102.2999
1.696                  0.9774545       -103.5035
1.7                    0.9695432       -104.4614
1.704                  0.9652836       -105.2528
1.708                  0.9653261       -105.9843
1.712                  0.9695366       -106.7678
1.716                  0.9770591       -107.6976
1.72                   0.9865209       -108.8334
1.724                  0.9963153       -110.1933
1.728                    1.00489       -111.7566
1.732                   1.010984       -113.4727
1.736                   1.013798       -115.2717
1.74                    1.013072       -117.0761
1.744                   1.009097       -118.8105
1.748                   1.002657       -120.4116
1.752                  0.9948993       -121.8366
1.756                  0.9871613       -123.0702
1.76                   0.9807558       -124.1289
1.764                  0.9767496       -125.0592
1.768                  0.9757761       -125.9305
1.772                  0.9779285       -126.8214
1.776                  0.9827581       -127.8045
1.78                   0.9893771       -128.9321
1.784                  0.9966388       -130.2289
1.788                   1.003347         -131.69
1.792                   1.008452        -133.285
1.796                   1.011204       -134.9648
1.8                     1.011251       -136.6705
1.804                   1.008676       -138.3413
1.808                   1.003969       -139.9231
1.812                  0.9979507       -141.3762
1.816                  0.9916445       -142.6811
1.82                    0.986112       -143.8431
1.824                  0.9822763       -144.8919
1.828                  0.9807629       -145.8774
1.832                  0.9817901       -146.8607
1.836                  0.9851361       -147.9021
1.84                   0.9901915       -149.0498
1.844                  0.9960793        -150.332
1.848                   1.001816       -151.7529
1.852                   1.006478       -153.2945
1.856                   1.009346       -154.9209
1.86                    1.010005       -156.5846
1.864                   1.008399       -158.2341
1.868                   1.004828       -159.8208
1.872                  0.9999037       -161.3062
1.876                  0.9944508       -162.6674
1.88                   0.9893778       -163.9018
1.884                  0.9855281       -165.0279
1.888                  0.9835357       -166.0831
1.892                  0.9837142       -167.1174
1.896                  0.9860036       -168.1835
1.9                    0.9899872       -169.3277
1.904                   0.994973       -170.5809
1.908                   1.000122       -171.9544
1.912                   1.004592       -173.4395
1.916                   1.007673       -175.0096
1.92                    1.008895       -176.6259
1.924                   1.008089       -178.2432
1.928                   1.005414       -179.8163
1.932                   1.001322        178.6928
1.936                   0.996496        177.3102
1.94                   0.9917356        176.0446
1.944                  0.9878333        174.8861
1.948                  0.9854378        173.8065
1.952                  0.9849416         172.764
1.956                  0.9864118         171.711
1.96                   0.9895807        170.6028
1.964                  0.9938977        169.4057
1.968                  0.9986319        168.1025
1.972                   1.002999        166.6949
1.976                   1.006291        165.2015
1.98                    1.007985        163.6548
1.984                   1.007824        162.0951
1.988                   1.005846        160.5651
1.992                   1.002383        159.1032
1.996                  0.9980048        157.7381
2                       0.993434        156.4839
2.004                  0.9894293        155.3373
2.008                  0.9866597        154.2775
2.012                  0.9855875        153.2688
2.016                  0.9863868        152.2675
2.02                   0.9889115        151.2293
2.024                  0.9927247        150.1179
2.028                  0.9971786        148.9111
2.032                    1.00153        147.6041
2.036                   1.005062        146.2094
2.04                    1.007205        144.7539
2.044                   1.007615        143.2743
2.048                   1.006232        141.8116
2.052                   1.003281        140.4048
2.056                  0.9992439        139.0855
2.06                   0.9947823        137.8725
2.064                  0.9906354        136.7685
2.068                  0.9874972        135.7585
2.072                   0.985897         134.812
2.076                  0.9861045         133.888
2.08                   0.9880807        132.9423
2.084                  0.9914846         131.936
2.088                  0.9957357        130.8418
2.092                   1.000117        129.6494
2.096                   1.003899        128.3654
2.1                     1.006457        127.0123
2.104                   1.007369        125.6239
2.108                    1.00648        124.2403
2.112                   1.003926        122.9018
2.116                   1.000113        121.6431
2.12                   0.9956586        120.4875
2.124                  0.9912965        119.4431
2.128                  0.9877563        118.5004
2.132                  0.9856389        117.6328
2.136                  0.9853095        116.8013
2.14                   0.9868284        115.9607
2.144                  0.9899389        115.0686
2.148                  0.9941128        114.0929
2.152                   0.998644         113.017
2.156                   1.002771        111.8425
2.16                    1.005803        110.5877
2.164                   1.007227        109.2846
2.168                   1.006792        107.9734
2.172                   1.004545        106.6964
2.176                   1.000826        105.4926
2.18                    0.996223        104.3906
2.184                  0.9914819        103.4045
2.188                  0.9873899        102.5301
2.192                  0.9846415        101.7446
2.196                  0.9837153        101.0098
2.2                    0.9847826        100.2785
2.204                  0.9876726        99.50309
2.208                  0.9918997        98.64461
2.212                   0.996749        97.67953
2.216                     1.0014        96.60331
2.22                    1.005064        95.43043
2.224                    1.00711        94.19138
2.228                   1.007162        92.92771
2.232                   1.005162        91.68596
2.236                   1.001383        90.51088
2.24                   0.9963929        89.43889
2.244                  0.9909784        88.49183
2.248                   0.986024        87.67229
2.252                  0.9823671        86.96147
2.256                  0.9806499         86.3211
2.26                   0.9811965        85.69927
2.264                  0.9839447        85.03985
2.268                  0.9884492         84.2931
2.272                  0.9939558         83.4247
2.276                  0.9995308        82.42154
2.28                    1.004216          81.293
2.284                   1.007184        80.06873
2.288                   1.007865        78.79375
2.292                    1.00604        77.52197
2.296                   1.001882        76.30893
2.3                    0.9959453        75.20391
2.304                  0.9891022         74.2422
2.308                  0.9824216        73.43783
2.312                  0.9770054        72.77875
2.316                  0.9737988        72.22574
2.32                   0.9734092        71.71721
2.324                   0.975975        71.17958
2.328                  0.9811181        70.54104
2.332                  0.9879953        69.74531
2.336                  0.9954353        68.76157
2.34                    1.002129        67.58869
2.344                   1.006837        66.25425
2.348                   1.008573        64.80963
2.352                    1.00676        63.32313