! TOUCHSTONE file generated by CST MICROWAVE STUDIO
! Date and time: Tue Jun  7 21:11:32 2022
! Project name: AppElm_antenne_patch_FR4.cst
! Parameters = {L=45; W=58.5; e=0.035; h=1.6; lambda=0.190476; ls=120; w0=1.6; w1=0.533333; ws=108; y0=20; y1=23.81}
! Header version: 2018
! Port assignment regex: !\s*Touchstone port\s*([0-9]+)\s*=\s*(CST MWS port|CST DS port)\s*([0-9]+|Zmin|Zmax)\s*\(\"(.*)\"\)(\s*mode\s*([0-9]+))?.*
! Touchstone port assignment:
! Touchstone port 1 = CST MWS port 1 ("")
# GHz S MA R 50
0                      0.9891908              -0
0.004                  0.9898341       -9.927771
0.008                  0.9916757       -19.76856
0.012                  0.9944643       -29.43963
0.016                  0.9978238       -38.86603
0.02                    1.001309       -47.98304
0.024                   1.004468       -56.73733
0.028                   1.006908        -65.0871
0.032                    1.00834        -73.0016
0.036                   1.008619       -80.46048
0.04                    1.007757       -87.45323
0.044                   1.005917       -93.97884
0.048                   1.003388       -100.0459
0.052                   1.000546       -105.6724
0.056                  0.9977963       -110.8858
0.06                   0.9955182       -115.7216
0.064                  0.9940105       -120.2217
0.068                  0.9934488       -124.4319
0.072                  0.9938634       -128.3979
0.076                  0.9951397       -132.1624
0.08                    0.997042       -135.7613
0.084                  0.9992535        -139.222
0.088                   1.001429       -142.5624
0.092                   1.003245       -145.7912
0.096                   1.004452       -148.9094
0.1                       1.0049        -151.913
0.104                   1.004562        -154.795
0.108                   1.003529       -157.5484
0.112                   1.001995        -160.169
0.116                   1.000222       -162.6567
0.12                   0.9984971       -165.0173
0.124                  0.9970922       -167.2623
0.128                  0.9962164        -169.408
0.132                  0.9959874       -171.4741
0.136                  0.9964153       -173.4808
0.14                   0.9974045       -175.4468
0.144                  0.9987734       -177.3867
0.148                   1.000286       -179.3095
0.152                   1.001695        178.7819
0.156                   1.002777        176.8902
0.16                     1.00337        175.0229
0.164                   1.003397          173.19
0.168                   1.002874        171.4024
0.172                   1.001903        169.6694
0.176                   1.000658        167.9974
0.18                   0.9993507         166.388
0.184                  0.9981979        164.8383
0.188                  0.9973856        163.3403
0.192                  0.9970378        161.8827
0.196                   0.997199        160.4524
0.2                    0.9978275        159.0364
0.204                  0.9988051         157.624
0.208                  0.9999589        156.2082
0.212                   1.001092        154.7866
0.216                   1.002015        153.3614
0.22                    1.002581         151.939
0.224                   1.002702        150.5281
0.228                   1.002369         149.139
0.232                   1.001647        147.7809
0.236                   1.000665        146.4606
0.24                   0.9995922        145.1817
0.244                  0.9986108        143.9433
0.248                  0.9978844        142.7407
0.252                  0.9975308        141.5654
0.256                  0.9976026        140.4073
0.26                   0.9980798        139.2558
0.264                  0.9988734        138.1019
0.268                  0.9998426        136.9394
0.272                    1.00082        135.7659
0.276                   1.001639        134.5832
0.28                    1.002164        133.3965
0.284                    1.00231        132.2138
0.288                   1.002057        131.0441
0.292                   1.001455        129.8961
0.296                   1.000611        128.7765
0.3                    0.9996698        127.6892
0.304                  0.9987945        126.6341
0.308                   0.998134        125.6076
0.312                  0.9977985        124.6027
0.316                  0.9978422        123.6106
0.32                   0.9982522        122.6218
0.324                  0.9989539        121.6284
0.328                  0.9998232        120.6246
0.332                   1.000708        119.6081
0.336                   1.001456        118.5804
0.34                    1.001941        117.5463
0.344                   1.002081        116.5131
0.348                   1.001857        115.4892
0.352                   1.001308        114.4828
0.356                   1.000534        113.5004
0.36                   0.9996679        112.5456
0.364                  0.9988615        111.6188
0.368                  0.9982541        110.7165
0.372                  0.9979498        109.8325
0.376                  0.9979999        108.9585
0.38                   0.9983933         108.086
0.384                  0.9990596        107.2071
0.388                  0.9998811        106.3167
0.392                   1.000714        105.4126
0.396                   1.001414        104.4964
0.4                      1.00186        103.5727
0.404                   1.001976        102.6485
0.408                   1.001743        101.7322
0.412                   1.001203        100.8313
0.416                   1.000451        99.95237
0.42                   0.9996188        99.09871
0.424                  0.9988509        98.27048
0.428                  0.9982816        97.46436
0.432                  0.9980105        96.67421
0.436                  0.9980843        95.89196
0.44                    0.998489        95.10925
0.444                  0.9991528        94.31872
0.448                  0.9999588        93.51541
0.452                   1.000765        92.69756
0.456                   1.001431        91.86686
0.46                     1.00184        91.02813
0.464                   1.001921        90.18846
0.468                    1.00166        89.35596
0.472                   1.001103        88.53832
0.476                   1.000347        87.74155
0.48                   0.9995251        86.96889
0.484                  0.9987814        86.22016
0.488                  0.9982469        85.49177
0.492                  0.9980162        84.77736
0.496                  0.9981298        84.06886
0.5                    0.9985677        83.35793
0.504                  0.9992527        82.63748
0.508                   1.000063        81.90284
0.512                   1.000856        81.15266
0.516                   1.001492        80.38905
0.52                    1.001857        79.61723
0.524                   1.001887        78.84452
0.528                   1.001575        78.07917
0.532                   1.000975        77.32884
0.536                   1.000192        76.59931
0.54                   0.9993621        75.89344
0.544                  0.9986329        75.21055
0.548                  0.9981334        74.54661
0.552                  0.9979531        73.89479
0.556                  0.9981246        73.24675
0.56                   0.9986188        72.59407
0.564                  0.9993481        71.92982
0.568                   1.000184        71.24968
0.572                   1.000978        70.55283
0.576                   1.001589        69.84197
0.58                    1.001909         69.1229
0.584                   1.001878        68.40341
0.588                     1.0015        67.69202
0.592                   1.000841         66.9964
0.596                   1.000015         66.3221
0.6                    0.9991676        65.67149
0.604                  0.9984491         65.0433
0.608                  0.9979881        64.43279
0.612                  0.9978678        63.83254
0.616                  0.9981114        63.23376
0.62                    0.998677        62.62787
0.624                  0.9994648        62.00806
0.628                   1.000335        61.37052
0.632                   1.001133        60.71504
0.636                   1.001715        60.04513
0.64                    1.001977        59.36732
0.644                   1.001869        58.69002
0.648                   1.001408        58.02208
0.652                   1.000673        57.37123
0.656                  0.9997931        56.74271
0.66                   0.9989232        56.13825
0.664                   0.998219        55.55579
0.668                   0.997808         54.9897
0.672                  0.9977658        54.43175
0.676                  0.9981027         53.8726
0.68                   0.9987611        53.30346
0.684                  0.9996245        52.71774
0.688                    1.00054        52.11217
0.692                   1.001344        51.48738
0.696                   1.001891        50.84787
0.7                     1.002081        50.20111
0.704                   1.001878        49.55624
0.708                   1.001313        48.92256
0.712                   1.000483        48.30783
0.716                  0.9995341        47.71687
0.72                   0.9986339        47.15069
0.724                   0.997944        46.60621
0.728                  0.9975901         46.0767
0.732                  0.9976385        45.55297
0.736                  0.9980835        45.02505
0.74                   0.9988482        44.48392
0.744                  0.9997973        43.92324
0.748                   1.000761        43.34045
0.752                   1.001567        42.73724
0.756                   1.002068        42.11922
0.76                    1.002172        41.49496
0.764                   1.001855        40.87449
0.768                   1.001169        40.26755
0.772                   1.000232        39.68185
0.776                  0.9992092         39.1217
0.78                   0.9982826        38.58717
0.784                  0.9976197        38.07391
0.788                  0.9973427        37.57391
0.792                  0.9975051         37.0769
0.796                  0.9980818        36.57214
0.8                    0.9989721        36.05048
0.804                   1.000018        35.50597
0.808                   1.001033        34.93696
0.812                   1.001831        34.34641
0.816                   1.002269         33.7413
0.82                     1.00226        33.13152
0.824                   1.001802        32.52805
0.828                   1.000969         31.9411
0.832                  0.9999047        31.37827
0.836                  0.9987969        30.84317
0.84                   0.9978436        30.33467
0.844                  0.9972182        29.84691
0.848                  0.9970371        29.37038
0.852                  0.9973379         28.8935
0.856                  0.9980714        28.40478
0.86                   0.9991091        27.89491
0.864                   1.000267        27.35852
0.868                   1.001336        26.79507
0.872                   1.002123        26.20901
0.876                   1.002483          25.609
0.88                    1.002344        25.00634
0.884                   1.001724        24.41308
0.888                   1.000726        23.83991
0.892                   0.999524        23.29419
0.896                  0.9983306        22.77863
0.9                    0.9973609        22.29061
0.904                  0.9967927        21.82253
0.908                   0.996734        21.36309
0.912                  0.9972018        20.89931
0.916                  0.9981172        20.41891
0.92                   0.9993197        19.91258
0.924                   1.000595        19.37568
0.928                   1.001712        18.80915
0.932                   1.002467        18.21925
0.936                   1.002717        17.61651
0.94                     1.00241        17.01392
0.944                   1.001591         16.4247
0.948                   1.000397        15.85992
0.952                  0.9990371        15.32658
0.956                  0.9977522        14.82616
0.96                    0.996776        14.35422
0.964                  0.9962897        13.90101
0.968                   0.996389        13.45316
0.972                  0.9970644        12.99607
0.976                  0.9982014        12.51663
0.98                   0.9996002        12.00564
0.984                   1.001011         11.4595
0.988                   1.002179         10.8809
0.992                   1.002888         10.2783
0.996                   1.003005         9.66447
1                       1.002495        9.054329
1.004                    1.00144        8.462353
1.008                   1.000017        7.900044
1.012                  0.9984748        7.373808
1.016                  0.9970894         6.88363
1.02                    0.996113        6.422853
1.024                  0.9957292        5.979185
1.028                   0.996017        5.536841
1.032                  0.9969338        5.079419
1.036                  0.9983222         4.59296
1.04                   0.9999366         4.06855
1.044                   1.001487        3.503959
1.048                   1.002691        2.904036
1.052                   1.003324        2.279858
1.056                   1.003261        1.646825
1.06                    1.002498        1.022044
1.064                   1.001156       0.4213897
1.068                  0.9994642       -0.143303
1.072                  0.9977184      -0.6664771
1.076                  0.9962325       -1.150104
1.08                   0.9952807       -1.603618
1.084                  0.9950456       -2.042435
1.088                  0.9955832        -2.48523
1.092                  0.9968089        -2.95049
1.096                  0.9985114       -3.453048
1.1                     1.000389       -4.001309
1.104                   1.002104       -4.595696
1.108                   1.003342       -5.228691
1.112                   1.003869       -5.885892
1.116                   1.003573       -6.548776
1.12                    1.002487       -7.197533
1.124                   1.000785        -7.81471
1.128                  0.9987558       -8.388007
1.132                  0.9967557       -8.913053
1.136                  0.9951448       -9.394263
1.14                   0.9942225       -9.844535
1.144                  0.9941698       -10.28316
1.148                  0.9950127       -10.73235
1.152                  0.9966144       -11.21312
1.156                  0.9986967       -11.74129
1.16                     1.00089       -12.32455
1.164                   1.002797        -12.9611
1.168                   1.004067       -13.63994
1.172                   1.004454       -14.34279
1.176                   1.003866       -15.04716
1.18                    1.002381       -15.73008
1.184                   1.000238       -16.37202
1.188                   0.997804       -16.96042
1.192                  0.9955074       -17.49231
1.196                  0.9937664       -17.97531
1.2                      0.99291       -18.42678
1.204                  0.9931151       -18.87096
1.208                  0.9943678       -19.33455
1.212                  0.9964618       -19.84167
1.216                   0.999033       -20.40927
1.22                    1.001623       -21.04402
1.224                   1.003762       -21.74106
1.228                   1.005049       -22.48499
1.232                   1.005226       -23.25235
1.236                   1.004225       -24.01557
1.24                    1.002184        -24.7474
1.244                  0.9994314       -25.42563
1.248                  0.9964331       -26.03715
1.252                  0.9937179       -26.58082
1.256                  0.9917822       -27.06852
1.26                   0.9909978       -27.52359
1.264                  0.9915377       -27.97704
1.268                  0.9933359       -28.46172
1.272                  0.9960948       -29.00611
1.276                  0.9993337       -29.62887
1.28                    1.002475       -30.33535
1.284                   1.004946       -31.11685
1.288                   1.006276       -31.95207
1.292                   1.006188       -32.81065
1.296                   1.004639       -33.65809
1.3                     1.001847       -34.46119
1.304                  0.9982566       -35.19372
1.308                  0.9944728        -35.8414
1.312                  0.9911633       -36.40537
1.316                  0.9889389       -36.90313
1.32                   0.9882362       -37.36651
1.324                  0.9892277       -37.83611
1.328                  0.9917784       -38.35379
1.332                  0.9954618       -38.95443
1.336                  0.9996323       -39.65936
1.34                    1.003538        -40.4724
1.344                   1.006454       -41.37942
1.348                   1.007807       -42.35087
1.352                   1.007274       -43.34641
1.356                   1.004852       -44.32121
1.36                    1.000863       -45.23277
1.364                  0.9959242       -46.04814
1.368                  0.9908538       -46.75035
1.372                  0.9865419       -47.34319
1.376                  0.9837894       -47.85258
1.38                   0.9831528       -48.32356
1.384                  0.9848217       -48.81269
1.388                  0.9885643       -49.37714
1.392                  0.9937572       -50.06337
1.396                  0.9994887       -50.89818
1.4                     1.004719       -51.88412
1.404                   1.008458       -52.99954
1.408                   1.009934       -54.20238
1.412                   1.008724       -55.43659
1.416                   1.004841       -56.64003
1.42                   0.9987553       -57.75344
1.424                   0.991348       -58.73009
1.428                  0.9837981       -59.54527
1.432                  0.9773996       -60.20414
1.436                   0.973332       -60.74517
1.44                   0.9724222       -61.23683
1.444                  0.9749513       -61.76626
1.448                  0.9805631        -62.4221
1.452                  0.9883009       -63.27638
1.456                  0.9967661       -64.37066
1.46                    1.004356       -65.70968
1.464                   1.009528        -67.2621
1.468                   1.011048       -68.96637
1.472                   1.008188       -70.73936
1.476                   1.000866       -72.48624
1.48                   0.9897107       -74.11182
1.484                  0.9760452       -75.53433
1.488                  0.9617654       -76.70197
1.492                  0.9490936       -77.61113
1.496                  0.9402068       -78.32127
1.5                      0.93678       -78.95816
1.504                  0.9395472       -79.69837
1.508                  0.9480192       -80.73581
1.512                  0.9604602       -82.24196
1.516                   0.974123        -84.3361
1.52                   0.9856445       -87.07442
1.524                   0.991472       -90.45614
1.528                  0.9882298       -94.43825
1.532                  0.9729915       -98.95053
1.536                  0.9434583       -103.9067
1.54                   0.8980658       -109.2092
1.544                  0.8360373       -114.7483
1.548                  0.7574005       -120.3912
1.552                  0.6629844       -125.9564
1.556                   0.554421       -131.1481
1.56                   0.4342279       -135.3705
1.564                  0.3062937       -137.0625
1.568                  0.1789579       -130.2826
1.572                  0.0953548       -84.67598
1.576                  0.1651093       -31.98713
1.58                   0.2912665       -23.14557
1.584                  0.4199725       -24.36303
1.588                  0.5416093       -28.46354
1.592                  0.6519889       -33.66084
1.596                   0.748419       -39.29741
1.6                    0.8291105        -45.0552
1.604                  0.8930811       -50.74274
1.608                  0.9401537       -56.22178
1.612                  0.9709678       -61.37792
1.616                  0.9869753       -66.10874
1.62                   0.9904017       -70.32129
1.624                  0.9841572       -73.93651
1.628                  0.9716765       -76.90021
1.632                  0.9566606       -79.19958
1.636                  0.9427089       -80.88076
1.64                   0.9328638       -82.05957
1.644                  0.9291581         -82.914
1.648                  0.9323057       -83.65458
1.652                  0.9416663       -84.48006
1.656                  0.9555093       -85.53728
1.66                   0.9714777       -86.90037
1.664                  0.9870919       -88.57251
1.668                   1.000172       -90.50156
1.672                   1.009123        -92.6002
1.676                   1.013087       -94.76408
1.68                    1.011985        -96.8863
1.684                   1.006468       -98.86937
1.688                  0.9978007       -100.6359
1.692                  0.9876651       -102.1383
1.696                  0.9779133       -103.3679
1.7                    0.9702723       -104.3589
1.704                  0.9660526       -105.1851
1.708                    0.96592       -105.9474
1.712                  0.9697912       -106.7531
1.716                  0.9768847       -107.6937
1.72                   0.9859096       -108.8286
1.724                  0.9953323       -110.1777
1.728                   1.003655       -111.7232
1.732                   1.009649        -113.418
1.736                   1.012522       -115.1954
1.74                    1.011998        -116.981
1.744                   1.008339        -118.702
1.748                    1.00228       -120.2967
1.752                  0.9949163       -121.7233
1.756                  0.9875324       -122.9664
1.76                    0.981392        -124.041
1.764                  0.9775285       -124.9913
1.768                  0.9765618       -125.8835
1.772                  0.9785944        -126.793
1.776                  0.9832061       -127.7894
1.78                   0.9895513       -128.9238
1.784                  0.9965312       -130.2204
1.788                   1.002993       -131.6751
1.792                   1.007922       -133.2591
1.796                   1.010593       -134.9252
1.8                     1.010662       -136.6165
1.804                   1.008205       -138.2743
1.808                   1.003697       -139.8464
1.812                  0.9979299       -141.2944
1.816                  0.9918919       -142.5999
1.82                   0.9866069       -143.7681
1.824                  0.9829629       -144.8279
1.828                   0.981559       -145.8277
1.832                  0.9825998       -146.8263
1.836                  0.9858654       -147.8818
1.84                   0.9907622       -149.0404
1.844                  0.9964401       -150.3288
1.848                   1.001949       -151.7508
1.852                   1.006399       -153.2886
1.856                   1.009101       -154.9068
1.86                    1.009663       -156.5596
1.864                   1.008041       -158.1968
1.868                   1.004542       -159.7716
1.872                   0.999767       -161.2472
1.876                  0.9945212       -162.6023
1.88                   0.9896851       -163.8355
1.884                  0.9860684       -164.9657
1.888                  0.9842703       -166.0299
1.892                  0.9845754       -167.0769
1.896                  0.9869043       -168.1577
1.9                    0.9908347        -169.316
1.904                  0.9956836       -170.5811
1.908                   1.000632       -171.9625
1.912                   1.004869       -173.4505
1.916                   1.007717       -175.0184
1.92                    1.008739       -176.6276
1.924                   1.007798       -178.2341
1.928                   1.005072       -179.7943
1.932                   1.001025        178.7282
1.936                   0.996333        177.3571
1.94                    0.991781        176.0995
1.944                   0.988131        174.9436
1.948                  0.9859929        173.8606
1.952                  0.9857185        172.8089
1.956                   0.987338        171.7422
1.96                    0.990558        170.6178
1.964                  0.9948181        169.4045
1.968                  0.9993943        168.0876
1.972                   1.003525        166.6707
1.976                   1.006536        165.1739
1.98                    1.007948        163.6301
1.984                   1.007545        162.0792
1.988                   1.005404        160.5626
1.992                   1.001884        159.1169
1.996                  0.9975676        157.7683
2                      0.9931732        156.5282
2.004                  0.9894353        155.3909
2.008                  0.9869823        154.3332
2.012                  0.9862258        153.3191
2.016                  0.9872856         152.305
2.02                   0.9899702        151.2487
2.024                  0.9938128        150.1168
2.028                  0.9981567        148.8902
2.032                   1.002272        147.5673
2.036                   1.005477        146.1629
2.04                    1.007248        144.7055
2.044                     1.0073        143.2322
2.048                   1.005627        141.7832
2.052                   1.002505        140.3958
2.056                  0.9984451        139.0985
2.06                     0.99412        137.9068
2.064                  0.9902525        136.8195
2.068                  0.9874959        135.8184
2.072                  0.9863183        134.8711
2.076                  0.9869178        133.9361
2.08                   0.9891863        132.9707
2.084                  0.9927292         131.939
2.088                  0.9969376         130.818
2.092                   1.001096        129.6016
2.096                   1.004507        128.3004
2.1                     1.006599        126.9394
2.104                   1.007024         125.554
2.108                   1.005702        124.1839
2.112                   1.002843        122.8678
2.116                  0.9989054        121.6369
2.12                    0.994537        120.5103
2.124                  0.9904651        119.4911
2.128                  0.9873783         118.565
2.132                  0.9858052        117.7018
2.136                  0.9860181        116.8609
2.14                   0.9879808        115.9983
2.144                   0.991354        115.0749
2.148                  0.9955564        114.0638
2.152                  0.9998694        112.9543
2.156                   1.003559        111.7534
2.16                    1.005999        110.4839
2.164                   1.006769        109.1802
2.168                   1.005721        107.8829
2.172                   1.003004         106.633
2.176                  0.9990427        105.4651
2.18                   0.9944763        104.4026
2.184                  0.9900589        103.4528
2.188                  0.9865351        102.6045
2.192                  0.9845105        101.8295
2.196                  0.9843404        101.0863
2.2                    0.9860602        100.3282
2.204                  0.9893762        99.51171
2.208                  0.9937165        98.60447
2.212                  0.9983328        97.59106
2.216                    1.00243        96.47498
2.22                    1.005297        95.27721
2.224                   1.006424        94.03255
2.228                   1.005581        92.78395
2.232                   1.002857        91.57629
2.236                  0.9986501        90.44969
2.24                   0.9936166        89.43322
2.244                  0.9885704        88.53929
2.248                  0.9843526        87.76048
2.252                  0.9816868        87.06931
2.256                  0.9810457        86.42196
2.26                   0.9825568        85.76596
2.264                  0.9859712        85.04993
2.268                  0.9907043        84.23337
2.272                  0.9959365        83.29367
2.276                   1.000755        82.22965
2.28                    1.004303        81.06079
2.284                   1.005922        79.82364
2.288                   1.005251        78.56608
2.292                   1.002291        77.34054
2.296                  0.9974124        76.19654
2.3                    0.9913162        75.17312
2.304                  0.9849353        74.29192
2.308                  0.9792955        73.55148
2.312                  0.9753423        72.92519
2.316                  0.9737681        72.36368
2.32                     0.97487        71.80267
2.324                  0.9784784        71.17472
2.328                  0.9839709         70.4221
2.332                  0.9903743        69.50746
2.336                  0.9965262        68.41973
2.34                    1.001263        67.17492
2.344                   1.003604        65.81276
2.348                   1.002897        64.39072
2.352                  0.9989324        62.97648