! TOUCHSTONE file generated by CST MICROWAVE STUDIO
! Date and time: Tue Jun  7 21:11:34 2022
! Project name: AppElm_antenne_patch_FR4.cst
! Parameters = {L=45; W=58.5; e=0.035; h=1.6; lambda=0.190476; ls=120; w0=1.6; w1=0.533333; ws=120; y0=20; y1=23.81}
! Header version: 2018
! Port assignment regex: !\s*Touchstone port\s*([0-9]+)\s*=\s*(CST MWS port|CST DS port)\s*([0-9]+|Zmin|Zmax)\s*\(\"(.*)\"\)(\s*mode\s*([0-9]+))?.*
! Touchstone port assignment:
! Touchstone port 1 = CST MWS port 1 ("")
# GHz S MA R 50
0                      0.9892868              -0
0.004                   0.989927       -9.930481
0.008                  0.9917594       -19.77385
0.012                  0.9945329       -29.44723
0.016                   0.997872       -38.87557
0.02                    1.001332       -47.99405
0.024                   1.004465       -56.74927
0.028                   1.006876       -65.09936
0.032                   1.008281        -73.0136
0.036                   1.008538       -80.47163
0.04                     1.00766       -87.46304
0.044                   1.005812       -93.98696
0.048                   1.003287       -100.0521
0.052                   1.000459       -105.6769
0.056                  0.9977342       -110.8887
0.06                   0.9954885       -115.7234
0.064                  0.9940175       -120.2232
0.068                  0.9934919       -124.4337
0.072                  0.9939374       -128.4009
0.076                   0.995235        -132.167
0.08                   0.9971457       -135.7679
0.084                  0.9993511       -139.2306
0.088                   1.001507       -142.5727
0.092                   1.003292       -145.8027
0.096                   1.004461       -148.9214
0.1                     1.004869       -151.9246
0.104                   1.004496       -154.8053
0.108                   1.003438       -157.5568
0.112                   1.001891       -160.1749
0.116                   1.000121       -162.6601
0.12                    0.998416       -165.0185
0.124                  0.9970434       -167.2617
0.128                  0.9962081       -169.4066
0.132                  0.9960219       -171.4727
0.136                   0.996488       -173.4805
0.14                   0.9975047       -175.4483
0.144                  0.9988859       -177.3905
0.148                   1.000394       -179.3157
0.152                   1.001782        178.7736
0.156                   1.002829        176.8805
0.16                    1.003379        175.0126
0.164                   1.003362        173.1802
0.168                   1.002799        171.3939
0.172                   1.001801        169.6631
0.176                   1.000545        167.9937
0.18                   0.9992441        166.3869
0.184                  0.9981148        164.8395
0.188                  0.9973388        163.3431
0.192                  0.9970348        161.8862
0.196                  0.9972398        160.4555
0.2                     0.997905        159.0381
0.204                  0.9989062        157.6236
0.208                   1.000067        156.2054
0.212                   1.001188        154.7814
0.216                   1.002084        153.3544
0.22                    1.002611        151.9308
0.224                   1.002688        150.5199
0.228                   1.002314        149.1316
0.232                    1.00156        147.7753
0.236                    1.00056        146.4574
0.24                   0.9994878        145.1811
0.244                  0.9985245        143.9451
0.248                  0.9978311        142.7442
0.252                    0.99752        141.5699
0.256                  0.9976368        140.4116
0.26                   0.9981535        139.2589
0.264                  0.9989746         138.103
0.268                  0.9999546        136.9379
0.272                   1.000924        135.7619
0.276                   1.001717         134.577
0.28                    1.002203         133.389
0.284                   1.002302        132.2059
0.288                   1.002005        131.0369
0.292                   1.001366        129.8906
0.296                   1.000498        128.7734
0.3                    0.9995533        127.6889
0.304                  0.9986933        126.6365
0.308                  0.9980644         125.612
0.312                  0.9977725        124.6083
0.316                  0.9978636        123.6162
0.32                   0.9983178        122.6265
0.324                  0.9990521        121.6311
0.328                  0.9999369        120.6247
0.332                   1.000818        119.6055
0.336                   1.001544        118.5755
0.34                    1.001992        117.5397
0.344                   1.002086        116.5059
0.348                   1.001814        115.4825
0.352                   1.001226        114.4776
0.356                   1.000425        113.4976
0.36                   0.9995523        112.5456
0.364                  0.9987587        111.6214
0.368                  0.9981818        110.7214
0.372                  0.9979207        109.8387
0.376                  0.9980195        108.9649
0.38                   0.9984585        108.0913
0.384                  0.9991594        107.2105
0.388                  0.9999988        106.3175
0.392                    1.00083        105.4106
0.396                   1.001508        104.4919
0.4                     1.001916        103.5665
0.404                   1.001985        102.6416
0.408                   1.001704        101.7256
0.412                   1.001122        100.8263
0.416                   1.000343        99.94971
0.42                   0.9995011        99.09884
0.424                   0.998745         98.2734
0.428                  0.9982065        97.46957
0.432                  0.9979792        96.68076
0.436                  0.9981027        95.89873
0.44                   0.9985542        95.11504
0.444                  0.9992539        94.32252
0.448                   1.000078        93.51654
0.452                   1.000882        92.69584
0.456                   1.001525        91.86256
0.46                    1.001894        91.02203
0.464                   1.001926        90.18162
0.468                   1.001614        89.34958
0.472                   1.001013        88.53358
0.476                   1.000229        87.73934
0.48                   0.9993986        86.96965
0.484                  0.9986683        86.22388
0.488                  0.9981669         85.4979
0.492                  0.9979835        84.78492
0.496                  0.9981507        84.07665
0.5                    0.9986391        83.36468
0.504                  0.9993629         82.6421
0.508                   1.000194        81.90461
0.512                   1.000985        81.15136
0.516                   1.001598          80.385
0.52                    1.001922        79.61116
0.524                   1.001901         78.8376
0.528                   1.001536        78.07264
0.532                    1.00089         77.3239
0.536                   1.000076        76.59691
0.54                   0.9992368        75.89404
0.544                  0.9985202        75.21412
0.548                  0.9980535        74.55259
0.552                  0.9979201        73.90219
0.556                  0.9981446        73.25433
0.56                    0.998688        72.60055
0.564                   0.999454        71.93411
0.568                   1.000308        71.25109
0.572                   1.001097        70.55122
0.576                   1.001681         69.8377
0.58                    1.001956        69.11682
0.584                   1.001871        68.39673
0.588                    1.00144        67.68604
0.592                   1.000736        66.99236
0.596                   0.999882        66.32094
0.6                    0.9990295        65.67364
0.604                  0.9983299        65.04863
0.608                  0.9979088        64.44063
0.612                  0.9978431        63.84173
0.616                  0.9981466        63.24294
0.62                    0.998767        62.63566
0.624                  0.9995951         62.0133
0.628                   1.000484        61.37248
0.632                   1.001277        60.71361
0.636                    1.00183        60.04072
0.64                    1.002044        59.36085
0.644                   1.001878        58.68279
0.648                   1.001359         58.0155
0.652                   1.000575        57.36661
0.656                  0.9996649        56.74099
0.66                   0.9987881         56.1399
0.664                  0.9981019        55.56067
0.668                  0.9977302        54.99709
0.672                  0.9977417        54.44047
0.676                  0.9981372        53.88124
0.68                   0.9988478        53.31064
0.684                  0.9997482        52.72233
0.688                   1.000678        52.11352
0.692                   1.001471        51.48545
0.696                   1.001985        50.84318
0.7                     1.002124         50.1947
0.704                   1.001861        49.54949
0.708                   1.001238        48.91693
0.712                   1.000363        48.30462
0.716                  0.9993896        47.71699
0.72                    0.998491        47.15448
0.724                   0.997829        46.61336
0.728                  0.9975249         46.0863
0.732                  0.9976367        45.56368
0.736                   0.998148        45.03528
0.74                   0.9989703        44.49217
0.744                  0.9999584        43.92834
0.748                   1.000936        43.34178
0.752                   1.001728        42.73479
0.756                   1.002189        42.11367
0.76                    1.002235        41.48749
0.764                   1.001851        40.86662
0.768                   1.001101        40.26086
0.772                   1.000115        39.67772
0.776                  0.9990649        39.12109
0.78                    0.998139        38.59039
0.784                  0.9975043         38.0806
0.788                   0.997278         37.5831
0.792                  0.9975042        37.08714
0.796                  0.9981466        36.58181
0.8                    0.9990925        36.05807
0.804                   1.000174        35.51034
0.808                   1.001197        34.93756
0.812                   1.001976        34.34337
0.816                   1.002368        33.73543
0.82                    1.002298        33.12413
0.824                   1.001771        32.52074
0.828                   1.000876         31.9355
0.832                  0.9997672        31.37576
0.836                  0.9986407         30.8446
0.84                   0.9976986        30.34019
0.844                  0.9971131        29.85596
0.848                  0.9969942        29.38174
0.852                  0.9973689        28.90552
0.856                  0.9981751        28.41567
0.86                   0.9992716        27.90309
0.864                   1.000464        27.36282
0.868                   1.001538        26.79503
0.872                   1.002298        26.20491
0.876                   1.002605        25.60181
0.88                    1.002395        24.99757
0.884                   1.001699        24.40454
0.888                   1.000633        23.83335
0.892                  0.9993841        23.29105
0.896                  0.9981723        22.77974
0.9                    0.9972164        22.29606
0.904                  0.9966924        21.83162
0.908                  0.9967004        21.37446
0.912                  0.9972455        20.91116
0.916                  0.9982354        20.42934
0.92                   0.9994955        19.91996
0.924                   1.000801        19.37891
0.928                   1.001916        18.80786
0.932                   1.002637        18.21388
0.936                   1.002827        17.60822
0.94                    1.002443        17.00441
0.944                   1.001543        16.41589
0.948                   1.000282        15.85366
0.952                  0.9988772        15.32429
0.956                  0.9975806        14.82859
0.96                   0.9966277        14.36128
0.964                  0.9961964        13.91178
0.968                   0.996373        13.46603
0.972                  0.9971343        13.00903
0.976                  0.9983507        12.52765
0.98                   0.9998083        12.01301
0.984                   1.001247        11.46218
0.988                   1.002407        10.87866
0.992                   1.003074        10.27176
0.996                    1.00312        9.655025
1                       1.002526        9.043876
1.004                   1.001386         8.45299
1.008                  0.9998937        7.893707
1.012                  0.9983107        7.371919
1.016                  0.9969204        6.886831
1.02                   0.9959771        6.430856
1.024                   0.995659        5.990808
1.028                  0.9960337          5.5502
1.032                  0.9970435        5.092273
1.036                   0.998514        4.603121
1.04                    1.000185        4.074281
1.044                   1.001756        3.504282
1.048                    1.00294        2.898905
1.052                   1.003516        2.270165
1.056                   1.003367        1.634257
1.06                    1.002505        1.008804
1.064                   1.001067       0.4098364
1.068                  0.9992978       -0.151051
1.072                  0.9975087      -0.6689189
1.076                   0.996021        -1.14664
1.08                   0.9951093       -1.594686
1.084                    0.99495       -2.029447
1.088                  0.9955854       -2.470331
1.092                  0.9969137        -2.93616
1.096                  0.9987055       -3.441646
1.1                     1.000643       -3.994645
1.104                   1.002379        -4.59474
1.108                   1.003595       -5.233309
1.112                   1.004061       -5.895072
1.116                   1.003677       -6.560605
1.12                     1.00249       -7.209692
1.124                   1.000695       -7.824656
1.128                  0.9985969        -8.39369
1.132                  0.9965659        -8.91308
1.136                  0.9949694       -9.388289
1.14                   0.9941055       -9.833362
1.144                  0.9941459       -10.26862
1.148                  0.9951006       -10.71698
1.152                  0.9968125       -11.19971
1.156                  0.9989836       -11.73236
1.16                    1.001227       -12.32189
1.164                   1.003137       -12.96545
1.168                   1.004359       -13.65087
1.172                   1.004656       -14.35875
1.176                   1.003947       -15.06574
1.18                    1.002331       -15.74835
1.184                    1.00007       -16.38702
1.188                  0.9975484       -16.96965
1.192                  0.9952117       -17.49415
1.196                  0.9934852        -17.9694
1.2                    0.9926961       -18.41408
1.204                  0.9930098        -18.8536
1.208                  0.9943936       -19.31548
1.212                  0.9966185       -19.82409
1.216                  0.9992978       -20.39605
1.22                    1.001955       -21.03717
1.224                   1.004108       -21.74145
1.228                   1.005357       -22.49216
1.232                    1.00545       -23.26469
1.236                   1.004336       -24.03053
1.24                    1.002173       -24.76197
1.244                  0.9993135        -25.4368
1.248                  0.9962447       -26.04248
1.252                  0.9935103       -26.57895
1.256                   0.991613       -27.05946
1.26                   0.9909202       -27.50884
1.264                  0.9915894        -27.9593
1.268                  0.9935324       -28.44447
1.272                  0.9964243        -28.9929
1.276                  0.9997602       -29.62266
1.28                    1.002943       -30.33803
1.284                   1.005388       -31.12881
1.288                    1.00663       -31.97221
1.292                   1.006399       -32.83651
1.296                   1.004677       -33.68614
1.3                     1.001707       -34.48741
1.304                  0.9979609       -35.21417
1.308                  0.9940722       -35.85286
1.312                  0.9907273       -36.40595
1.316                  0.9885446       -36.89276
1.32                   0.9879553       -37.34691
1.324                  0.9891135       -37.81066
1.328                  0.9918564       -38.32681
1.332                  0.9957254       -38.93043
1.336                   1.000044       -39.64217
1.34                    1.004037       -40.46456
1.344                   1.006967       -41.38182
1.348                    1.00826       -42.36262
1.352                   1.007608       -43.36511
1.356                   1.005028       -44.34325
1.36                    1.000874       -45.25394
1.364                  0.9957946       -46.06432
1.368                  0.9906378       -46.75827
1.372                  0.9863139       -47.34112
1.376                  0.9836317       -47.84084
1.38                   0.9831386       -48.30463
1.384                  0.9850009        -48.7908
1.388                  0.9889521       -49.35748
1.392                  0.9943294       -50.05106
1.396                   1.000186       -50.89729
1.4                     1.005455       -51.89697
1.404                   1.009133        -53.0263
1.408                   1.010453       -54.24108
1.412                   1.009011       -55.48326
1.416                   1.004851       -56.68921
1.42                   0.9984829       -57.79879
1.424                  0.9908341       -58.76526
1.428                  0.9831264       -59.56491
1.432                  0.9766865       -60.20498
1.436                  0.9727101       -60.72695
1.44                   0.9720167        -61.2026
1.444                  0.9748578       -61.72208
1.448                  0.9808294       -62.37583
1.452                  0.9889193       -63.23613
1.456                  0.9976755       -64.34334
1.46                    1.005454       -65.69993
1.464                    1.01069        -67.2718
1.468                   1.012145       -68.99465
1.472                   1.009108       -70.78271
1.476                    1.00153       -72.53906
1.48                   0.9900891       -74.16701
1.484                  0.9761663       -75.58414
1.488                  0.9617176       -76.73933
1.492                  0.9490187       -77.63131
1.496                  0.9402799       -78.32362
1.5                    0.9371776       -78.94724
1.504                  0.9404109       -79.68386
1.508                  0.9494237       -80.73069
1.512                   0.962397       -82.26002
1.516                  0.9765019       -84.38959
1.52                   0.9883083       -87.17284
1.524                  0.9942188       -90.60608
1.528                  0.9908354       -94.64397
1.532                  0.9752281       -99.21498
1.536                  0.9451099       -104.2323
1.54                   0.8989393       -109.5991
1.544                  0.8359695        -115.207
1.548                   0.756262        -120.926
1.552                  0.6606786       -126.5792
1.556                  0.5508772       -131.8778
1.56                   0.4293822       -136.2364
1.564                  0.3000403       -138.0917
1.568                   0.171101       -131.2257
1.572                 0.08911492        -81.2215
1.576                  0.1676655       -29.28412
1.58                   0.2964607       -21.94218
1.584                  0.4261563       -23.72006
1.588                  0.5481907       -28.09684
1.592                  0.6586188       -33.45628
1.596                  0.7548394       -39.19821
1.6                    0.8351176       -45.02849
1.604                  0.8985144       -50.76711
1.608                  0.9448954       -56.28172
1.612                  0.9749454       -61.46117
1.616                  0.9901634       -66.20476
1.62                   0.9928238       -70.42057
1.624                  0.9858864       -74.03027
1.628                  0.9728322       -76.98072
1.632                  0.9573998        -79.2608
1.636                  0.9432114       -80.91946
1.64                   0.9333092       -82.07617
1.644                  0.9296996       -82.91288
1.648                  0.9330473       -83.64309
1.652                  0.9426503        -84.4667
1.656                   0.956719       -85.52969
1.66                     0.97285       -86.90406
1.664                  0.9885371       -88.59029
1.668                   1.001592       -90.53389
1.672                   1.010427       -92.64558
1.676                     1.0142       -94.81966
1.68                    1.012859       -96.94834
1.684                   1.007082       -98.93373
1.688                  0.9981633       -100.6982
1.692                  0.9878106       -102.1948
1.696                   0.977897       -103.4156
1.7                    0.9701612       -104.3961
1.704                  0.9659153       -105.2118
1.708                   0.965816       -105.9649
1.712                  0.9697623       -106.7638
1.716                   0.976951       -107.7007
1.72                   0.9860703       -108.8346
1.724                  0.9955703        -110.185
1.728                   1.003943       -111.7332
1.732                   1.009957        -113.431
1.736                    1.01282       -115.2113
1.74                    1.012266       -116.9991
1.744                   1.008564       -118.7211
1.748                   1.002459       -120.3158
1.752                  0.9950554       -121.7413
1.756                   0.987644       -122.9826
1.76                   0.9814935        -124.055
1.764                  0.9776368       -125.0033
1.768                  0.9766914        -125.894
1.772                  0.9787539       -126.8027
1.776                  0.9833976       -127.7992
1.78                   0.9897718       -128.9345
1.784                  0.9967722       -130.2325
1.788                   1.003244        -131.689
1.792                   1.008173       -133.2748
1.796                   1.010832       -134.9427
1.8                     1.010881       -136.6356
1.804                   1.008399       -138.2946
1.808                   1.003861       -139.8676
1.812                  0.9980607       -141.3163
1.816                  0.9919879        -142.622
1.82                   0.9866667         -143.79
1.824                  0.9829866       -144.8493
1.828                  0.9815476       -145.8481
1.832                  0.9825567       -146.8452
1.836                  0.9857966       -147.8987
1.84                   0.9906766       -149.0549
1.844                  0.9963494       -150.3406
1.848                   1.001867       -151.7599
1.852                    1.00634       -153.2952
1.856                   1.009078       -154.9115
1.86                    1.009688        -156.563
1.864                    1.00812       -158.1999
1.868                   1.004674       -159.7755
1.872                  0.9999433        -161.253
1.876                  0.9947277       -162.6111
1.88                   0.9899009       -163.8477
1.884                  0.9862691       -164.9814
1.888                  0.9844329       -166.0487
1.892                  0.9846812       -167.0977
1.896                  0.9869438       -168.1789
1.9                    0.9908085       -169.3363
1.904                  0.9956035       -170.5988
1.908                    1.00052       -171.9767
1.912                    1.00475       -173.4608
1.916                   1.007622       -175.0249
1.92                    1.008693       -176.6313
1.924                    1.00782       -178.2362
1.928                   1.005169       -179.7967
1.932                   1.001189        178.7237
1.936                  0.9965463        177.3488
1.94                    0.992012        176.0863
1.944                  0.9883418        174.9252
1.948                  0.9861456        173.8376
1.952                  0.9857815        172.7829
1.956                  0.9872931        171.7155
1.96                   0.9904039        170.5929
1.964                  0.9945721        169.3839
1.968                  0.9990899        168.0732
1.972                   1.003207        166.6633
1.976                   1.006253        165.1735
1.98                    1.007746        163.6354
1.984                   1.007458         162.088
1.988                    1.00545        160.5722
1.992                   1.002061        159.1242
1.996                  0.9978505        157.7704
2                      0.9935179        156.5229
2.004                  0.9897848         155.377
2.008                  0.9872752        154.3112
2.012                  0.9864072        153.2906
2.016                  0.9873174        152.2732
2.02                   0.9898387        151.2174
2.024                  0.9935311        150.0897
2.028                  0.9977639        148.8704
2.032                   1.001826        147.5568
2.036                   1.005046        146.1622
2.04                    1.006899        144.7134
2.044                   1.007088        143.2462
2.048                   1.005586        141.7997
2.052                   1.002639        140.4105
2.056                  0.9987295        139.1075
2.06                    0.994501        137.9066
2.064                  0.9906561        136.8083
2.068                   0.987839        135.7963
2.072                  0.9865232        134.8401
2.076                  0.9869277        133.9001
2.08                   0.9889753        132.9347
2.084                  0.9923094        131.9083
2.088                  0.9963572        130.7972
2.092                   1.000433        129.5936
2.096                   1.003854        128.3062
2.1                     1.006051        126.9578
2.104                   1.006662        125.5816
2.108                    1.00558         124.216
2.112                   1.002973        122.8986
2.116                  0.9992622        121.6606
2.12                   0.9950515        120.5219
2.124                  0.9910376        119.4874
2.128                  0.9878932        118.5455
2.132                  0.9861505        117.6688
2.136                   0.986106        116.8194
2.14                   0.9877651        115.9551
2.144                  0.9908399        115.0374
2.148                   0.994801        114.0385
2.152                   0.998972        112.9459
2.156                   1.002646        111.7639
2.16                    1.005201        110.5122
2.164                   1.006202        109.2223
2.168                   1.005465        107.9325
2.172                   1.003088        106.6824
2.176                  0.9994385        105.5064
2.18                   0.9950986        104.4287
2.184                  0.9907765        103.4591
2.188                  0.9871916        102.5898
2.192                   0.984951        101.7964
2.196                  0.9844404        101.0416
2.2                     0.985751         100.281
2.204                  0.9886598        99.47229
2.208                  0.9926676        98.58215
2.212                   0.997088        97.59259
2.216                   1.001165        96.50327
2.22                    1.004199        95.33098
2.224                   1.005658        94.10636
2.228                   1.005265        92.86901
2.232                   1.003038        91.66167
2.236                  0.9992932        90.52383
2.24                   0.9946042        89.48577
2.244                  0.9897162        88.56314
2.248                  0.9854297        87.75334
2.252                  0.9824659        87.03465
2.256                  0.9813374        86.36898
2.26                   0.9822497        85.70809
2.264                  0.9850574        85.00245
2.268                  0.9892841        84.21042
2.272                  0.9942037        83.30578
2.276                  0.9989656         82.2818
2.28                    1.002734        81.15167
2.284                   1.004823        79.94584
2.288                   1.004806        78.70715
2.292                    1.00258        77.48453
2.296                   0.998395        76.32636
2.3                    0.9928272        75.27324
2.304                  0.9867027        74.35113
2.308                   0.980979        73.56575
2.312                  0.9765909        72.89944
2.316                  0.9742866        72.31194
2.32                    0.974482        71.74613
2.324                  0.9771694        71.13791
2.328                  0.9819024        70.42819
2.332                  0.9878628        69.57378
2.336                  0.9939941         68.5547
2.34                   0.9991717         67.3767
2.344                   1.002378        66.06942
2.348                   1.002858         64.6818
2.352                   1.000238        63.27535