! TOUCHSTONE file generated by CST MICROWAVE STUDIO
! Date and time: Tue Jun  7 21:11:35 2022
! Project name: AppElm_antenne_patch_FR4.cst
! Parameters = {L=45; W=58.5; e=0.035; h=1.6; lambda=0.190476; ls=120; w0=1.6; w1=0.533333; ws=126; y0=20; y1=23.81}
! Header version: 2018
! Port assignment regex: !\s*Touchstone port\s*([0-9]+)\s*=\s*(CST MWS port|CST DS port)\s*([0-9]+|Zmin|Zmax)\s*\(\"(.*)\"\)(\s*mode\s*([0-9]+))?.*
! Touchstone port assignment:
! Touchstone port 1 = CST MWS port 1 ("")
# GHz S MA R 50
0                      0.9893419              -0
0.004                  0.9899801       -9.930897
0.008                  0.9918068       -19.77463
0.012                  0.9945709       -29.44831
0.016                  0.9978976       -38.87681
0.02                    1.001343       -47.99529
0.024                    1.00446        -56.7503
0.028                   1.006855       -65.09999
0.032                   1.008246       -73.01361
0.036                   1.008491       -80.47084
0.04                    1.007605       -87.46128
0.044                   1.005755       -93.98415
0.048                   1.003233       -100.0483
0.052                   1.000414       -105.6721
0.056                  0.9977034       -110.8832
0.06                   0.9954759       -115.7175
0.064                  0.9940243       -120.2172
0.068                  0.9935178       -124.4282
0.072                  0.9939788       -128.3961
0.076                  0.9952867       -132.1633
0.08                   0.9972007       -135.7654
0.084                  0.9994019       -139.2293
0.088                   1.001546       -142.5724
0.092                   1.003315       -145.8031
0.096                   1.004464       -148.9221
0.1                     1.004853       -151.9252
0.104                   1.004461       -154.8053
0.108                    1.00339       -157.5559
0.112                   1.001838        -160.173
0.116                   1.000071       -162.6571
0.12                   0.9983762       -165.0144
0.124                  0.9970203       -167.2569
0.128                  0.9962055       -169.4015
0.132                  0.9960404       -171.4679
0.136                  0.9965248       -173.4763
0.14                   0.9975542       -175.4452
0.144                  0.9989404       -177.3886
0.148                   1.000445        -179.315
0.152                   1.001821        178.7732
0.156                    1.00285        176.8794
0.16                    1.003379        175.0112
0.164                    1.00334        173.1789
0.168                    1.00276        171.3934
0.172                    1.00175        169.6636
0.176                    1.00049        167.9953
0.18                   0.9991942        166.3898
0.184                  0.9980781        164.8434
0.188                  0.9973213        163.3476
0.192                  0.9970394        161.8908
0.196                  0.9972659        160.4597
0.2                    0.9979481        159.0415
0.204                  0.9989593        157.6259
0.208                   1.000121        156.2063
0.212                   1.001235        154.7811
0.216                   1.002116        153.3531
0.22                    1.002621         151.929
0.224                   1.002676        150.5181
0.228                   1.002282        149.1304
0.232                   1.001512        147.7749
0.236                   1.000505        146.4583
0.24                   0.9994344        145.1832
0.244                  0.9984818        143.9484
0.248                  0.9978063        142.7483
0.252                  0.9975172        141.5743
0.256                  0.9976566        140.4158
0.26                   0.9981924        139.2624
0.264                  0.9990262        138.1053
0.268                    1.00001         136.939
0.272                   1.000974        135.7617
0.276                   1.001753        134.5758
0.28                    1.002219        133.3871
0.284                   1.002295        132.2039
0.288                   1.001976        131.0353
0.292                    1.00132        129.8898
0.296                   1.000443        128.7739
0.3                     0.999498        127.6907
0.304                   0.998647        126.6395
0.308                  0.9980356        125.6159
0.312                  0.9977658        124.6126
0.316                  0.9978803        123.6204
0.32                   0.9983551          122.63
0.324                  0.9991038        121.6335
0.328                  0.9999943        120.6258
0.332                   1.000871        119.6053
0.336                   1.001584        118.5742
0.34                    1.002011        117.5377
0.344                   1.002082        116.5037
0.348                   1.001787        115.4806
0.352                   1.001181        114.4766
0.356                    1.00037        113.4978
0.36                   0.9994956        112.5471
0.364                  0.9987105        111.6243
0.368                  0.9981505        110.7251
0.372                  0.9979119        109.8429
0.376                  0.9980348        108.9691
0.38                   0.9984954        108.0949
0.384                  0.9992116         107.213
0.388                   1.000057        106.3186
0.392                   1.000885        105.4104
0.396                    1.00155        104.4906
0.4                     1.001938        103.5643
0.404                   1.001983        102.6392
0.408                   1.001678        101.7236
0.412                   1.001077        100.8251
0.416                   1.000286        99.94975
0.42                   0.9994432        99.10029
0.424                  0.9986957        98.27616
0.428                  0.9981744        97.47334
0.432                  0.9979702        96.68504
0.436                  0.9981185        95.90294
0.44                   0.9985922        95.11859
0.444                  0.9993076        94.32495
0.448                   1.000138        93.51759
0.452                   1.000939        92.69546
0.456                   1.001568          91.861
0.46                    1.001916        91.01966
0.464                   1.001923        90.17902
0.468                   1.001586        89.34735
0.472                   1.000966        88.53225
0.476                    1.00017        87.73931
0.48                   0.9993382        86.97109
0.484                  0.9986169        86.22667
0.488                  0.9981337        85.50174
0.492                  0.9979744        84.78929
0.496                  0.9981672        84.08092
0.5                    0.9986786        83.36826
0.504                  0.9994184        82.64452
0.508                   1.000256        81.90559
0.512                   1.001043        81.15088
0.516                   1.001641        80.38329
0.52                    1.001943        79.60868
0.524                   1.001896         78.8349
0.528                   1.001506        78.07036
0.532                    1.00084        77.32259
0.536                   1.000015        76.59695
0.54                   0.9991751         75.8956
0.544                  0.9984687        75.21709
0.548                  0.9980215        74.55659
0.552                  0.9979134        73.90669
0.556                  0.9981645        73.25868
0.56                   0.9987312        72.60413
0.564                  0.9995132        71.93644
0.568                   1.000372        71.25192
0.572                   1.001156        70.55051
0.576                   1.001724        69.83576
0.58                    1.001976        69.11411
0.584                   1.001864        68.39386
0.588                   1.001406        67.68369
0.592                   1.000682        66.99108
0.596                  0.9998174        66.32109
0.6                    0.9989654        65.67539
0.604                  0.9982777        65.05182
0.608                  0.9978777        64.44486
0.612                  0.9978388        63.84643
0.616                  0.9981701        63.24741
0.62                   0.9988143        62.63926
0.624                   0.999658        62.01558
0.628                   1.000552        61.37318
0.632                   1.001337        60.71274
0.636                   1.001872         60.0386
0.64                    1.002061        59.35801
0.644                   1.001867        58.67987
0.648                   1.001322        58.01318
0.652                   1.000518        57.36546
0.656                  0.9995981        56.74139
0.66                   0.9987238        56.14195
0.664                  0.9980515        55.56418
0.668                  0.9977031         55.0016
0.672                  0.9977433        54.44536
0.676                  0.9981675        53.88579
0.68                    0.998902        53.31419
0.684                   0.999817        52.72442
0.688                    1.00075        52.11391
0.692                   1.001534        51.48423
0.696                   1.002027        50.84071
0.7                     1.002139        50.19157
0.704                   1.001846        49.54639
0.708                   1.001196        48.91457
0.712                   1.000301        48.30357
0.716                  0.9993195        47.71761
0.72                   0.9984251        47.15684
0.724                  0.9977795        46.61721
0.728                  0.9975011        46.09112
0.732                  0.9976434        45.56879
0.736                  0.9981847        45.03991
0.74                    0.999031        44.49568
0.744                   1.000033        43.93025
0.748                   1.001012         43.3419
0.752                   1.001791        42.73328
0.756                    1.00223        42.11092
0.76                    1.002246        41.48416
0.764                   1.001831        40.86344
0.768                   1.001054        40.25857
0.772                   1.000049        39.67691
0.776                  0.9989925        39.12207
0.78                   0.9980737        38.59317
0.784                  0.9974585        38.08487
0.788                  0.9972606        37.58827
0.792                  0.9975196        37.09245
0.796                  0.9981929        36.58649
0.8                    0.9991626        36.06143
0.804                   1.000256        35.51194
0.808                   1.001278        34.93727
0.812                   1.002042        34.34138
0.816                   1.002408        33.73225
0.82                    1.002306        33.12046
0.824                   1.001746        32.51739
0.828                   1.000823        31.93323
0.832                  0.9996962        31.37514
0.836                  0.9985654        30.84592
0.84                   0.9976332        30.34339
0.844                  0.9970706        29.86066
0.848                  0.9969833        29.38727
0.852                   0.997393        28.91106
0.856                  0.9982311        28.42039
0.86                   0.9993512        27.90629
0.864                   1.000554         27.3641
0.868                   1.001624         26.7943
0.872                   1.002366        26.20246
0.876                   1.002643        25.59821
0.88                    1.002399        24.99361
0.884                   1.001668        24.40108
0.888                   1.000575        23.83116
0.892                   0.999309         23.2907
0.896                  0.9980956        22.78148
0.9                    0.9971533        22.29975
0.904                   0.996656        21.83678
0.908                  0.9966991        21.38032
0.912                  0.9972816        20.91684
0.916                  0.9983042        20.43396
0.92                   0.9995871        19.92283
0.924                   1.000901        19.37966
0.928                   1.002008        18.80648
0.932                   1.002706        18.21074
0.936                   1.002863          17.604
0.94                    1.002441        16.99998
0.944                   1.001505        16.41217
0.948                   1.000215        15.85146
0.952                  0.9987956        15.32415
0.956                  0.9975005         14.8307
0.96                   0.9965655        14.36543
0.964                  0.9961651        13.91738
0.968                  0.9963804        13.47222
0.972                  0.9971818        13.01483
0.976                   0.998432        12.53214
0.98                   0.9999113        12.01551
0.984                   1.001355        11.46236
0.988                   1.002503        10.87658
0.992                   1.003144        10.26791
0.996                   1.003153        9.650168
1                       1.002517        9.038983
1.004                   1.001339        8.449043
1.008                  0.9998185        7.891535
1.012                  0.9982227        7.372054
1.016                  0.9968375        6.889391
1.02                   0.9959165        6.435525
1.024                  0.9956342        5.996876
1.028                  0.9960518        5.556692
1.032                  0.9971042        5.098121
1.036                  0.9986093        4.607367
1.04                      1.0003        4.076248
1.044                   1.001873        3.503694
1.048                   1.003041        2.895934
1.052                   1.003585        2.265399
1.056                   1.003394        1.628599
1.06                    1.002485        1.003325
1.064                   1.001007       0.4055938
1.068                  0.9992102      -0.1531974
1.072                  0.9974108      -0.6684643
1.076                  0.9959323       -1.143538
1.08                   0.9950484        -1.58937
1.084                  0.9949306       -2.022766
1.088                  0.9956139       -2.463394
1.092                  0.9969881       -2.930137
1.096                  0.9988155       -3.437548
1.1                     1.000772       -3.993144
1.104                   1.002507       -4.596052
1.108                   1.003701       -5.237161
1.112                   1.004129       -5.900755
1.116                   1.003697       -6.567081
1.12                    1.002461        -7.21573
1.124                   1.000623       -7.829163
1.128                  0.9984973       -8.395758
1.132                  0.9964587       -8.912234
1.136                  0.9948763       -9.384568
1.14                   0.9940464       -9.827335
1.144                  0.9941347       -10.26129
1.148                  0.9951427       -10.70962
1.152                  0.9969042        -11.1936
1.156                  0.9991118       -11.72856
1.16                    1.001372       -12.32108
1.164                   1.003277       -12.96776
1.168                   1.004471       -13.65589
1.172                   1.004722       -14.36563
1.176                   1.003959       -15.07327
1.18                    1.002288       -15.75519
1.184                  0.9999807       -16.39192
1.188                  0.9974314       -16.97166
1.192                    0.99509       -17.49283
1.196                  0.9933834       -17.96488
1.2                    0.9926359       -18.40708
1.204                  0.9930057       -18.84534
1.208                  0.9944503        -19.3074
1.212                  0.9967299       -19.81763
1.216                  0.9994479       -20.39236
1.22                    1.002121       -21.03692
1.224                   1.004264       -21.74472
1.228                   1.005479       -22.49842
1.232                   1.005519       -23.27289
1.236                   1.004342       -24.03928
1.24                    1.002118       -24.76975
1.244                  0.9992085       -25.44223
1.248                  0.9961112       -26.04454
1.252                  0.9933753        -26.5772
1.256                  0.9915046       -27.05414
1.26                   0.9908622       -27.50086
1.264                  0.9915973       -27.95011
1.268                  0.9936099       -28.43575
1.272                  0.9965629       -28.98629
1.276                    0.99994       -29.61943
1.28                    1.003137       -30.33885
1.284                   1.005567       -31.13368
1.288                   1.006765       -31.98043
1.292                    1.00647       -32.84681
1.296                   1.004673       -33.69689
1.3                     1.001631       -34.49683
1.304                  0.9978283       -35.22064
1.308                  0.9939089       -35.85522
1.312                  0.9905655       -36.40375
1.316                  0.9884172       -36.88632
1.32                   0.9878905        -37.3374
1.324                  0.9891289       -37.79984
1.328                  0.9919557       -38.31671
1.332                   0.995897       -38.92299
1.336                   1.000264       -39.63887
1.34                    1.004273       -40.46615
1.344                   1.007182       -41.38825
1.348                   1.008422       -42.37302
1.352                   1.007693       -43.37796
1.356                   1.005024       -44.35658
1.36                    1.000784       -45.26563
1.364                  0.9956379       -46.07242
1.368                  0.9904456       -46.76137
1.372                  0.9861258       -47.33866
1.376                  0.9834886       -47.83325
1.38                   0.9830752       -48.29337
1.384                  0.9850382       -48.77812
1.388                  0.9890944       -49.34594
1.392                  0.9945619       -50.04308
1.396                   1.000478       -50.89469
1.4                     1.005765       -51.90068
1.404                   1.009417       -53.03623
1.408                   1.010668       -54.25616
1.412                   1.009125       -55.50159
1.416                   1.004849       -56.70831
1.42                   0.9983672        -57.8159
1.424                  0.9906277       -58.77775
1.428                  0.9828701       -59.57076
1.432                  0.9764333       -60.20321
1.436                  0.9725159       -60.71799
1.44                    0.971931       -61.18837
1.444                  0.9749134       -61.70561
1.448                  0.9810358       -62.36073
1.452                  0.9892602       -63.22587
1.456                  0.9981121       -64.34061
1.46                    1.005932       -65.70624
1.464                   1.011147       -67.28732
1.468                   1.012521       -69.01822
1.472                   1.009355       -70.81211
1.476                   1.001619       -72.57107
1.48                    0.990015        -74.1978
1.484                  0.9759539       -75.60973
1.488                   0.961421        -76.7562
1.492                  0.9487161       -77.63728
1.496                  0.9400633       -78.31862
1.5                    0.9371372       -78.93394
1.504                  0.9406163       -79.66739
1.508                  0.9499092        -80.7178
1.512                   0.963155       -82.25769
1.516                  0.9774842       -84.40388
1.52                   0.9894353       -87.20833
1.524                  0.9953903       -90.66584
1.528                  0.9919415       -94.72993
1.532                  0.9761589        -99.3283
1.536                  0.9457624        -104.374
1.54                   0.8992219       -109.7702
1.544                  0.8358061       -115.4094
1.548                  0.7555926       -121.1628
1.552                  0.6594595       -126.8552
1.556                  0.5490782       -132.2011
1.56                   0.4269777       -136.6186
1.564                  0.2969905       -138.5409
1.568                  0.1673437       -131.5995
1.572                 0.08652231       -79.27907
1.576                  0.1693068       -28.06686
1.58                   0.2992416       -21.41968
1.584                   0.429368       -23.44874
1.588                  0.5515745       -27.94903
1.592                  0.6620167       -33.38131
1.596                  0.7581311       -39.17104
1.6                    0.8382047       -45.03468
1.604                   0.901317       -50.79726
1.608                  0.9473519       -56.32904
1.612                  0.9770136       -61.52019
1.616                  0.9918226        -66.2707
1.62                   0.9940762       -70.48891
1.624                  0.9867579       -74.09667
1.628                  0.9733725       -77.04102
1.632                  0.9576801       -79.31139
1.636                  0.9433181       -80.95783
1.64                   0.9333347       -82.10148
1.644                  0.9297294       -82.92633
1.648                  0.9331472       -83.64767
1.652                  0.9428587       -84.46639
1.656                  0.9570441       -85.52851
1.66                   0.9732752       -86.90531
1.664                  0.9890284       -88.59617
1.668                   1.002107       -90.54538
1.672                    1.01092        -92.6627
1.676                   1.014635       -94.84158
1.68                    1.013204       -96.97368
1.684                   1.007322       -98.96068
1.688                   0.998293       -100.7248
1.692                  0.9878416       -102.2191
1.696                   0.977852       -103.4358
1.7                    0.9700717       -104.4112
1.704                  0.9658165       -105.2215
1.708                  0.9657408       -105.9698
1.712                  0.9697362       -106.7651
1.716                  0.9769888          -107.7
1.72                   0.9861748       -108.8339
1.724                  0.9957332       -110.1856
1.728                   1.004148       -111.7362
1.732                   1.010182       -113.4371
1.736                   1.013043       -115.2206
1.74                    1.012466       -117.0113
1.744                   1.008722       -118.7356
1.748                   1.002564       -120.3315
1.752                  0.9951035       -121.7573
1.756                   0.987638       -122.9976
1.76                   0.9814436       -124.0682
1.764                  0.9775584       -125.0138
1.768                   0.976603       -125.9015
1.772                  0.9786741       -126.8074
1.776                  0.9833424       -127.8016
1.78                   0.9897518       -128.9355
1.784                  0.9967923        -130.233
1.788                   1.003303         -131.69
1.792                   1.008264        -133.277
1.796                   1.010944       -134.9467
1.8                     1.011001       -136.6416
1.804                   1.008511       -138.3028
1.808                   1.003951       -139.8777
1.812                  0.9981181       -141.3277
1.816                  0.9920052       -142.6341
1.82                   0.9866419        -143.802
1.824                  0.9829233       -144.8602
1.828                  0.9814545       -145.8571
1.832                   0.982447        -146.852
1.836                  0.9856853        -147.903
1.84                   0.9905788       -149.0569
1.844                  0.9962781       -150.3408
1.848                   1.001831       -151.7591
1.852                   1.006344       -153.2941
1.856                    1.00912        -154.911
1.86                     1.00976       -156.5639
1.864                   1.008211       -158.2028
1.868                   1.004769       -159.7808
1.872                   1.000027       -161.2606
1.876                   0.994784       -162.6206
1.88                    0.989918       -163.8585
1.884                  0.9862405       -164.9926
1.888                  0.9843581       -166.0593
1.892                  0.9845672       -167.1065
1.896                  0.9868034       -168.1854
1.9                    0.9906592       -169.3399
1.904                  0.9954638       -170.5997
1.908                   1.000407       -171.9752
1.912                   1.004678       -173.4577
1.916                   1.007598       -175.0213
1.92                    1.008718       -176.6282
1.924                   1.007885       -178.2348
1.928                   1.005261       -179.7977
1.932                    1.00129        178.7198
1.936                  0.9966331         177.342
1.94                    0.992065        176.0769
1.944                  0.9883446        174.9142
1.948                   0.986089        173.8261
1.952                  0.9856659        172.7725
1.956                   0.987128        171.7074
1.96                   0.9902076        170.5881
1.964                  0.9943683        169.3828
1.968                  0.9989036        168.0757
1.972                   1.003061        166.6689
1.976                   1.006165        165.1809
1.98                    1.007724        163.6432
1.984                     1.0075        162.0948
1.988                   1.005545        160.5766
1.992                   1.002186        159.1251
1.996                    0.99798        157.7673
2                      0.9936222        156.5159
2.004                  0.9898372        155.3669
2.008                  0.9872566        154.2995
2.012                  0.9863095         153.279
2.016                  0.9871459        152.2637
2.02                    0.989611        151.2115
2.024                  0.9932749        150.0884
2.028                  0.9975125        148.8742
2.032                   1.001613         147.565
2.036                   1.004898        146.1737
2.04                    1.006836        144.7266
2.044                   1.007114         143.259
2.048                   1.005691        141.8102
2.052                   1.002801        140.4171
2.056                  0.9989161         139.109
2.06                   0.9946735        137.9028
2.064                  0.9907763        136.7998
2.068                  0.9878759        135.7847
2.072                  0.9864593        134.8276
2.076                  0.9867618        133.8892
2.08                   0.9887247        132.9278
2.084                  0.9920059        131.9071
2.088                  0.9960433        130.8026
2.092                   1.000154        129.6053
2.096                    1.00365         128.323
2.1                     1.005954        126.9776
2.104                   1.006683         125.602
2.108                   1.005714        124.2342
2.112                   1.003197        122.9121
2.116                  0.9995353        121.6677
2.12                   0.9953237        120.5219
2.124                  0.9912565        119.4809
2.128                  0.9880132         118.534
2.132                  0.9861416        117.6551
2.136                  0.9859599        116.8069
2.14                   0.9874976        115.9471
2.144                  0.9904893        115.0365
2.148                  0.9944215        114.0463
2.152                  0.9986253        112.9625
2.156                    1.00239        111.7879
2.16                    1.005081        110.5411
2.164                   1.006243        109.2528
2.168                   1.005666        107.9609
2.172                   1.003422        106.7052
2.176                  0.9998559         105.521
2.18                   0.9955329        104.4338
2.184                  0.9911558        103.4547
2.188                  0.9874502         102.578
2.192                  0.9850421        101.7807
2.196                  0.9843455        101.0264
2.2                    0.9854849        100.2711
2.204                  0.9882692        99.47151
2.208                  0.9922244        98.59298
2.212                  0.9966762        97.61554
2.216                   1.000867        96.53689
2.22                    1.004081          95.372
2.224                   1.005761        94.15029
2.228                   1.005594        92.91077
2.232                    1.00356        91.69634
2.236                  0.9999429        90.54744
2.24                   0.9952911        89.49606
2.244                  0.9903383        88.56005
2.248                  0.9858914        87.73934
2.252                  0.9826954        87.01452
2.256                  0.9813021        86.34909
2.26                   0.9819655        85.69528
2.264                  0.9845875        85.00267
2.268                  0.9887302        84.22765
2.272                  0.9936893        83.34116
2.276                  0.9986146        82.33349
2.28                     1.00265        81.21515
2.284                   1.005072        80.01461
2.288                   1.005402        78.77367
2.292                   1.003484        77.54137
2.296                  0.9995154        76.36726
2.3                    0.9940311        75.29427
2.304                  0.9878361        74.35162
2.308                   0.981892        73.54888
2.312                  0.9771663        72.87212
2.316                  0.9744644        72.28396
2.32                   0.9742774        71.72841
2.324                  0.9766753        71.14039
2.328                  0.9812773        70.45778
2.332                  0.9873052        69.63297
2.336                  0.9937093        68.64101
2.34                   0.9993371        67.48319
2.344                   1.003113         66.1858
2.348                   1.004203        64.79575
2.352                    1.00214        63.37436