! TOUCHSTONE file generated by CST MICROWAVE STUDIO
! Date and time: Tue Jun  7 21:11:37 2022
! Project name: AppElm_antenne_patch_FR4.cst
! Parameters = {L=45; W=58.5; e=0.035; h=1.6; lambda=0.190476; ls=120; w0=1.6; w1=0.533333; ws=138; y0=20; y1=23.81}
! Header version: 2018
! Port assignment regex: !\s*Touchstone port\s*([0-9]+)\s*=\s*(CST MWS port|CST DS port)\s*([0-9]+|Zmin|Zmax)\s*\(\"(.*)\"\)(\s*mode\s*([0-9]+))?.*
! Touchstone port assignment:
! Touchstone port 1 = CST MWS port 1 ("")
# GHz S MA R 50
0                      0.9894332              -0
0.004                  0.9900689       -9.932799
0.008                  0.9918882       -19.77834
0.012                  0.9946405       -29.45363
0.016                  0.9979513       -38.88347
0.02                    1.001378       -48.00295
0.024                   1.004473       -56.75854
0.028                   1.006847       -65.10838
0.032                   1.008217        -73.0217
0.036                   1.008444       -80.47819
0.04                    1.007546       -87.46755
0.044                   1.005691       -93.98907
0.048                   1.003173       -100.0517
0.052                   1.000366       -105.6741
0.056                   0.997675       -110.8841
0.06                   0.9954733       -115.7177
0.064                  0.9940509       -120.2172
0.068                  0.9935729       -124.4286
0.072                  0.9940586       -128.3975
0.076                  0.9953832        -132.166
0.08                   0.9973038       -135.7698
0.084                  0.9995005       -139.2353
0.088                   1.001629       -142.5799
0.092                   1.003374       -145.8116
0.096                   1.004494       -148.9311
0.1                     1.004851       -151.9339
0.104                   1.004432       -154.8132
0.108                    1.00334       -157.5624
0.112                   1.001778       -160.1777
0.116                   1.000013         -162.66
0.12                   0.9983321       -165.0156
0.124                      0.997        -167.257
0.128                  0.9962151        -169.401
0.132                  0.9960813       -171.4675
0.136                  0.9965931       -173.4768
0.14                   0.9976418       -175.4472
0.144                  0.9990351       -177.3924
0.148                   1.000534       -179.3207
0.152                    1.00189        178.7659
0.156                   1.002891         176.871
0.16                    1.003384        175.0024
0.164                    1.00331        173.1705
0.168                   1.002698         171.386
0.172                   1.001666         169.658
0.176                   1.000396        167.9918
0.18                   0.9991044        166.3884
0.184                  0.9980061        164.8438
0.188                  0.9972774        163.3492
0.192                   0.997029         161.893
0.196                   0.997289        160.4616
0.2                    0.9979992        159.0423
0.204                   0.999028        157.6251
0.208                   1.000194        156.2036
0.212                   1.001297        154.7766
0.216                   1.002155        153.3472
0.22                    1.002629        151.9223
0.224                   1.002649        150.5114
0.228                   1.002221        149.1244
0.232                   1.001425        147.7705
0.236                   1.000404        146.4558
0.24                    0.999333        145.1829
0.244                   0.998395        143.9501
0.248                  0.9977462        142.7516
0.252                  0.9974917        141.5783
0.256                  0.9976677        140.4198
0.26                   0.9982365        139.2655
0.264                  0.9990937         138.107
0.268                   1.000088        136.9387
0.272                   1.001047        135.7595
0.276                   1.001809        134.5719
0.28                    1.002246        133.3821
0.284                   1.002288        132.1985
0.288                   1.001935        131.0305
0.292                   1.001251        129.8864
0.296                   1.000358        128.7723
0.3                    0.9994106        127.6912
0.304                  0.9985728         126.642
0.308                  0.9979876        125.6201
0.312                  0.9977533        124.6176
0.316                  0.9979066        123.6254
0.32                   0.9984171        122.6341
0.324                  0.9991927         121.636
0.328                   1.000096        120.6262
0.332                   1.000971        119.6035
0.336                   1.001666        118.5703
0.34                    1.002064        117.5325
0.344                   1.002098        116.4978
0.348                   1.001766        115.4751
0.352                   1.001127        114.4722
0.356                   1.000293        113.4951
0.36                    0.999412        112.5466
0.364                  0.9986355        111.6259
0.368                  0.9980983        110.7285
0.372                  0.9978928        109.8473
0.376                  0.9980532        108.9736
0.38                   0.9985493        108.0987
0.384                  0.9992929        107.2153
0.388                   1.000153        106.3189
0.392                   1.000978        105.4085
0.396                   1.001626        104.4866
0.4                     1.001984         103.559
0.404                   1.001991        102.6333
0.408                   1.001647        101.7179
0.412                   1.001012        100.8207
0.416                   1.000199        99.94715
0.42                    0.999348        99.09996
0.424                  0.9986093        98.27807
0.428                  0.9981119         97.4771
0.432                  0.9979428        96.68994
0.436                  0.9981312        95.90805
0.44                    0.998643        95.12297
0.444                  0.9993879        94.32776
0.448                   1.000235        93.51825
0.452                   1.001034        92.69379
0.456                   1.001645         91.8572
0.46                    1.001962        91.01433
0.464                   1.001929        90.17296
0.468                   1.001551        89.34156
0.472                   1.000894        88.52768
0.476                   1.000073        87.73669
0.48                   0.9992313        86.97086
0.484                   0.998518        86.22883
0.488                  0.9980586        85.50589
0.492                  0.9979349        84.79473
0.496                  0.9981691        84.08669
0.5                    0.9987204        83.37337
0.504                  0.9994912        82.64808
0.508                   1.000346        81.90704
0.512                   1.001133        81.15001
0.516                   1.001714         80.3803
0.52                    1.001985        79.60416
0.524                   1.001899        78.82972
0.528                   1.001467        78.06553
0.532                   1.000766        77.31907
0.536                  0.9999176         76.5955
0.54                   0.9990711        75.89661
0.544                  0.9983763        75.22055
0.548                  0.9979573        74.56206
0.552                  0.9978894        73.91334
0.556                  0.9981861        73.26551
0.56                    0.998796        72.61006
0.564                  0.9996117        71.94053
0.568                   1.000489        71.25358
0.572                   1.001271        70.54952
0.576                   1.001821        69.83236
0.58                    1.002038        69.10896
0.584                   1.001883        68.38791
0.588                    1.00138          67.678
0.592                   1.000616        66.98668
0.596                  0.9997249        66.31881
0.6                    0.9988637        65.67564
0.604                  0.9981859        65.05461
0.608                  0.9978133         64.4497
0.612                  0.9978141         63.8525
0.616                  0.9981905        63.25364
0.62                   0.9988771        62.64456
0.624                  0.9997529          62.019
0.628                   1.000662        61.37415
0.632                   1.001444        60.71107
0.636                   1.001957         60.0346
0.64                    1.002108        59.35238
0.644                   1.001868        58.67366
0.648                   1.001275        58.00749
0.652                   1.000433        57.36137
0.656                  0.9994874         56.7397
0.66                   0.9986072        56.14307
0.664                  0.9979496        55.56802
0.668                  0.9976341        55.00761
0.672                  0.9977197        54.45257
0.676                  0.9981943        53.89304
0.68                   0.9989754        53.32029
0.684                  0.9999249        52.72837
0.688                   1.000874        52.11511
0.692                   1.001653        51.48253
0.696                   1.002121        50.83646
0.7                     1.002192        50.18556
0.704                   1.001849        49.53974
0.708                   1.001148        48.90849
0.712                   1.000211         48.2992
0.716                  0.9992026        47.71581
0.72                   0.9983022          47.158
0.724                  0.9976723        46.62121
0.728                  0.9974284        46.09735
0.732                  0.9976179        45.57622
0.736                  0.9982109        45.04732
0.74                   0.9991038        44.50183
0.744                   1.000139        43.93415
0.748                   1.001131        43.34296
0.752                   1.001903        42.73141
0.756                   1.002313         42.1066
0.76                    1.002284        41.47827
0.764                   1.001816        40.85721
0.768                   1.000987        40.25327
0.772                  0.9999408        39.67372
0.776                  0.9988619        39.12183
0.78                   0.9979434        38.59621
0.784                  0.9973518        38.09096
0.788                  0.9971975        37.59662
0.792                  0.9975129         37.1019
0.796                  0.9982457        36.59563
0.8                     0.999268        36.06891
0.804                   1.000398         35.5167
0.808                   1.001435        34.93872
0.812                   1.002189        34.33948
0.816                   1.002523        33.72753
0.82                    1.002371        33.11394
0.824                   1.001753        32.51039
0.828                   1.000774        31.92715
0.832                  0.9996036        31.37122
0.836                  0.9984484        30.84503
0.84                   0.9975168        30.34584
0.844                  0.9969789        29.86616
0.848                  0.9969367        29.39495
0.852                  0.9974037        28.91964
0.856                  0.9983012        28.42841
0.86                   0.9994714        27.91236
0.864                   1.000707        27.36718
0.868                   1.001784        26.79387
0.872                   1.002509         26.1986
0.876                   1.002744        25.59163
0.88                    1.002442         24.9855
0.884                   1.001646         24.3929
0.888                   1.000493        23.82445
0.892                  0.9991824        23.28677
0.896                  0.9979478        22.78118
0.9                     0.997012        22.30331
0.904                  0.9965484        21.84376
0.908                  0.9966469        21.38965
0.912                   0.997297        20.92701
0.916                  0.9983881        20.44333
0.92                   0.9997279        19.92985
0.924                   1.001077        19.38321
0.928                   1.002193        18.80603
0.932                   1.002871        18.20645
0.936                   1.002981        17.59668
0.94                    1.002495        16.99095
0.944                   1.001489        16.40307
0.948                   1.000134        15.84394
0.952                  0.9986676        15.31961
0.956                  0.9973511           14.83
0.96                   0.9964243        14.36875
0.964                   0.996061        13.92416
0.968                  0.9963355        13.48125
0.972                  0.9972072        13.02447
0.976                  0.9985264        12.54062
0.98                     1.00006        12.02125
0.984                   1.001535        11.46426
0.988                   1.002682        10.87424
0.992                   1.003291        10.26165
0.996                   1.003242        9.641038
1                       1.002531        9.028561
1.004                   1.001274        8.439191
1.008                  0.9996837        7.884091
1.012                  0.9980405          7.3685
1.016                   0.996639        6.890589
1.02                   0.9957366        6.441531
1.024                  0.9955053        6.006905
1.028                  0.9959985         5.56924
1.032                  0.9971377        5.111238
1.036                  0.9987266        4.618995
1.04                    1.000484        4.084591
1.044                   1.002094        3.507536
1.048                   1.003265        2.894832
1.052                   1.003776        2.259758
1.056                   1.003523        1.619604
1.06                    1.002534       0.9927399
1.064                   1.000971       0.3954732
1.068                  0.9991006      -0.1608596
1.072                  0.9972526      -0.6720914
1.076                  0.9957599       -1.142272
1.08                   0.9948995       -1.583257
1.084                  0.9948392       -2.012775
1.088                  0.9956045       -2.451255
1.092                  0.9970705       -2.918028
1.096                  0.9989828       -3.427694
1.1                     1.001002       -3.987411
1.104                   1.002764       -4.595615
1.108                   1.003947        -5.24227
1.112                   1.004324       -5.910781
1.116                   1.003809       -6.580413
1.12                    1.002472       -7.230291
1.124                   1.000531       -7.842467
1.128                  0.9983197       -8.405493
1.132                   0.996227       -8.916626
1.136                  0.9946329       -9.382718
1.14                   0.9938366        -9.81942
1.144                  0.9939989       -10.24857
1.148                  0.9951094       -10.69423
1.152                  0.9969839       -11.17816
1.156                   0.999296       -11.71572
1.16                    1.001634       -12.31302
1.164                   1.003576       -12.96584
1.168                   1.004762       -13.66045
1.172                   1.004959       -14.37587
1.176                   1.004105       -15.08746
1.18                    1.002324       -15.77089
1.184                  0.9999051       -16.40639
1.188                  0.9972633       -16.98233
1.192                  0.9948659       -17.49776
1.196                   0.993151       -17.96315
1.2                    0.9924455       -18.39903
1.204                  0.9929014       -18.83254
1.208                   0.994461       -19.29239
1.212                  0.9968639       -19.80343
1.216                  0.9996907       -20.38194
1.22                    1.002438       -21.03264
1.224                   1.004606       -21.74792
1.228                   1.005789       -22.50922
1.232                   1.005745       -23.29009
1.236                   1.004443       -24.06058
1.24                    1.002072       -24.79204
1.244                   0.999018       -25.46206
1.248                  0.9958028       -26.05871
1.252                  0.9929969       -26.58328
1.256                  0.9911176       -27.05103
1.26                   0.9905312       -27.48902
1.264                  0.9913789       -27.93152
1.268                  0.9935416       -28.41362
1.272                  0.9966569       -28.96442
1.276                   1.000181       -29.60153
1.28                    1.003483       -30.32793
1.284                   1.005961       -31.13152
1.288                    1.00714       -31.98727
1.292                   1.006762       -32.86141
1.296                   1.004833       -33.71665
1.3                     1.001632       -34.51815
1.304                  0.9976724       -35.23953
1.308                   0.993627       -35.86794
1.312                  0.9902141       -36.40753
1.316                  0.9880694       -36.87998
1.32                   0.9876226       -37.32169
1.324                  0.9890061       -37.77739
1.328                  0.9920194       -38.29161
1.332                  0.9961563           -38.9
1.336                   1.000693       -39.62254
1.34                    1.004815       -40.46006
1.344                   1.007759       -41.39438
1.348                   1.008945       -42.39147
1.352                   1.008077       -43.40685
1.356                   1.005203       -44.39228
1.36                    1.000723       -45.30319
1.364                  0.9953363        -46.1062
1.368                  0.9899454       -46.78598
1.372                  0.9855042       -47.34984
1.376                  0.9828474        -47.8289
1.38                    0.982524       -48.27402
1.384                  0.9846746       -48.74701
1.388                  0.9889855       -49.30848
1.392                  0.9947325       -50.00575
1.396                   1.000906       -50.86386
1.4                     1.006385       -51.88153
1.404                   1.010133       -53.03199
1.408                   1.011366       -54.26761
1.412                   1.009695       -55.52699
1.416                   1.005198       -56.74355
1.42                   0.9984415       -57.85496
1.424                  0.9904209       -58.81347
1.428                  0.9824307       -59.59595
1.432                  0.9758613       -60.21209
1.436                  0.9719492        -60.7076
1.44                   0.9715222       -61.15962
1.444                  0.9748005        -61.6635
1.448                   0.981314       -62.31354
1.452                  0.9899622       -63.18359
1.456                  0.9991996       -64.31312
1.46                      1.0073       -65.70176
1.464                   1.012637       -67.31129
1.468                   1.013944       -69.07269
1.472                   1.010509       -70.89535
1.476                   1.002322       -72.67754
1.48                   0.9901269       -74.31809
1.484                  0.9754047       -75.73102
1.488                  0.9602313        -76.8633
1.492                  0.9470114       -77.71475
1.496                  0.9380687       -78.35397
1.5                    0.9351509       -78.92112
1.504                  0.9389612       -79.60909
1.508                   0.948875       -80.62531
1.512                  0.9629475       -82.14842
1.516                  0.9781976       -84.29763
1.52                   0.9910475        -87.1241
1.524                  0.9977763        -90.6202
1.528                  0.9948965       -94.73645
1.532                  0.9794224       -99.39824
1.536                  0.9490411       -104.5172
1.54                   0.9022104       -109.9965
1.544                  0.8382019       -115.7301
1.548                  0.7571092       -121.5928
1.552                  0.6598333       -127.4164
1.556                  0.5480667       -132.9286
1.56                   0.4243394       -137.5724
1.564                  0.2924106       -139.8228
1.568                  0.1602075       -133.1691
1.572                 0.07971019       -75.48399
1.576                  0.1717462       -25.15594
1.58                   0.3048178       -20.04197
1.584                  0.4365376        -22.6814
1.588                  0.5597048       -27.50683
1.592                  0.6706644       -33.14626
1.596                  0.7669088       -39.08309
1.6                    0.8467511       -45.05832
1.604                  0.9092951       -50.90851
1.608                  0.9544575        -56.5095
1.612                  0.9829886       -61.75372
1.616                  0.9964705       -66.54146
1.62                   0.9972801       -70.77995
1.624                  0.9884983       -74.38929
1.628                  0.9737424       -77.31492
1.632                  0.9568921        -79.5462
1.636                   0.941695       -81.13602
1.64                   0.9312775       -82.21235
1.644                  0.9276603       -82.96919
1.648                  0.9314415       -83.63251
1.652                  0.9417847       -84.41131
1.656                   0.956732       -85.45488
1.66                   0.9737176       -86.83319
1.664                  0.9901056       -88.54131
1.668                   1.003623       -90.51805
1.672                   1.012642       -92.66767
1.676                   1.016325       -94.87875
1.68                    1.014652       -97.03882
1.684                   1.008365       -99.04614
1.688                  0.9988385       -100.8205
1.692                  0.9878747       -102.3135
1.696                  0.9774378       -103.5179
1.7                    0.9693447       -104.4719
1.704                  0.9649568       -105.2558
1.708                  0.9649408       -105.9778
1.712                  0.9691648       -106.7519
1.716                  0.9767623        -107.674
1.72                   0.9863401        -108.805
1.724                  0.9962666       -110.1636
1.728                   1.004965       -111.7287
1.732                   1.011156       -113.4488
1.736                   1.014025       -115.2534
1.74                     1.01331       -117.0636
1.744                   1.009302       -118.8033
1.748                   1.002795       -120.4081
1.752                  0.9949515       -121.8347
1.756                  0.9871275       -123.0674
1.76                    0.980654       -124.1229
1.764                  0.9766128       -125.0484
1.768                   0.975646       -125.9142
1.772                  0.9778472       -126.8002
1.776                  0.9827598       -127.7798
1.78                    0.989482       -128.9062
1.784                  0.9968507       -130.2042
1.788                   1.003652       -131.6687
1.792                   1.008823       -133.2687
1.796                   1.011605       -134.9545
1.8                     1.011643       -136.6661
1.804                   1.009022       -138.3422
1.808                    1.00424       -139.9279
1.812                  0.9981308       -141.3829
1.816                  0.9917315       -142.6877
1.82                   0.9861186       -143.8475
1.824                  0.9822282       -144.8925
1.828                  0.9806935       -145.8734
1.832                  0.9817348       -146.8522
1.836                  0.9851254       -147.8899
1.84                   0.9902464       -149.0356
1.844                  0.9962077       -150.3174
1.848                   1.002013       -151.7397
1.852                   1.006729       -153.2841
1.856                   1.009626        -154.914
1.86                    1.010287       -156.5815
1.864                   1.008657       -158.2344
1.868                   1.005043       -159.8236
1.872                   1.000064       -161.3102
1.876                  0.9945549       -162.6712
1.88                   0.9894359       -163.9041
1.884                  0.9855583       -165.0278
1.888                  0.9835613       -166.0803
1.892                  0.9837588        -167.112
1.896                  0.9860868       -168.1763
1.9                    0.9901204       -169.3199
1.904                  0.9951579       -170.5739
1.908                    1.00035       -171.9495
1.912                   1.004847       -173.4375
1.916                   1.007933        -175.011
1.92                    1.009136       -176.6305
1.924                   1.008292       -178.2505
1.928                   1.005563       -179.8254
1.932                   1.001411        178.6833
1.936                  0.9965267        177.3015
1.94                   0.9917197        176.0379
1.944                  0.9877892        174.8822
1.948                  0.9853877        173.8056
1.952                  0.9849077         172.766
1.956                  0.9864118        171.7151
1.96                    0.989625        170.6078
1.964                  0.9939884        169.4104
1.968                  0.9987617        168.1059
1.972                   1.003154        166.6961
1.976                   1.006452        165.2002
1.98                    1.008135        163.6511
1.984                   1.007946        162.0895
1.988                   1.005929        160.5583
1.992                   1.002423        159.0962
1.996                  0.9980062        157.7319
2                      0.9934068        156.4794
2.004                  0.9893893        155.3349
2.008                  0.9866241        154.2772
2.012                  0.9855721        153.2702
2.016                  0.9864021        152.2698
2.02                   0.9889615        151.2315
2.024                  0.9928052         150.119
2.028                  0.9972787        148.9105
2.032                   1.001634        147.6013
2.036                   1.005153        146.2044
2.04                    1.007266        144.7472
2.044                   1.007636        143.2666
2.048                   1.006207        141.8038
2.052                   1.003214         140.398
2.056                  0.9991434        139.0806
2.06                   0.9946649        137.8702
2.064                  0.9905195        136.7688
2.068                  0.9874015        135.7612
2.072                  0.9858361        134.8164
2.076                  0.9860868         133.893
2.08                   0.9881059        132.9468
2.084                  0.9915436        131.9388
2.088                  0.9958136        130.8424
2.092                   1.000196        129.6475
2.096                   1.003959        128.3612
2.1                     1.006483        127.0064
2.104                   1.007352        125.6173
2.108                   1.006418         124.234
2.112                   1.003825        122.8969
2.116                  0.9999873        121.6402
2.12                   0.9955265        120.4871
2.124                   0.991177        119.4451
2.128                  0.9876658        118.5041
2.132                  0.9855883        117.6374
2.136                  0.9853003        116.8054
2.14                   0.9868532        115.9633
2.144                  0.9899817        115.0688
2.148                  0.9941527        114.0903
2.152                  0.9986592        113.0119
2.156                   1.002742        111.8355
2.16                    1.005718        110.5801
2.164                   1.007084        109.2777
2.168                   1.006599        107.9683
2.172                   1.004317        106.6944
2.176                   1.000588        105.4942
2.18                   0.9960011        104.3958
2.184                  0.9913011        103.4127
2.188                  0.9872682          102.54
2.192                  0.9845866        101.7546
2.196                  0.9837216        101.0182
2.2                    0.9848321        100.2837
2.204                  0.9877375        99.50425
2.208                   0.991948        98.64159
2.212                  0.9967498        97.67301
2.216                    1.00133        96.59465
2.22                    1.004911        95.42141
2.224                   1.006875        94.18389
2.228                   1.006862        92.92348
2.232                   1.004825         91.6862
2.236                   1.001044        90.51614
2.24                   0.9960873        89.44881
2.244                  0.9907375        88.50519
2.248                  0.9858669        87.68711
2.252                  0.9822964        86.97542
2.256                  0.9806496        86.33182
2.26                   0.9812341        85.70506
2.264                  0.9839769        85.03993
2.268                  0.9884295        84.28789
2.272                  0.9938441         83.4158
2.276                   0.999301        82.41135
2.28                    1.003862        81.28434
2.284                    1.00672        80.06439
2.288                   1.007326        78.79597
2.292                   1.005476        77.53208
2.296                   1.001349        76.32707
2.3                    0.9954999        75.22886
2.304                  0.9887862        74.27145
2.308                  0.9822558        73.46782
2.312                  0.9769817        72.80543
2.316                  0.9738788        72.24539
2.32                   0.9735286        71.72731
2.324                  0.9760537        71.17943
2.328                  0.9810758        70.53207
2.332                  0.9877656         69.7309
2.336                  0.9949793        68.74635
2.34                    1.001444        67.57779
2.344                   1.005954        66.25243
2.348                    1.00756        64.82061
2.352                   1.005706        63.34895