! TOUCHSTONE file generated by CST MICROWAVE STUDIO
! Date and time: Tue Jun  7 21:11:30 2022
! Project name: AppElm_antenne_patch_FR4.cst
! Parameters = {L=45; W=58.5; e=0.035; h=1.6; lambda=0.190476; ls=120; w0=1.6; w1=0.533333; ws=96; y0=20; y1=23.81}
! Header version: 2018
! Port assignment regex: !\s*Touchstone port\s*([0-9]+)\s*=\s*(CST MWS port|CST DS port)\s*([0-9]+|Zmin|Zmax)\s*\(\"(.*)\"\)(\s*mode\s*([0-9]+))?.*
! Touchstone port assignment:
! Touchstone port 1 = CST MWS port 1 ("")
# GHz S MA R 50
0                      0.9892209              -0
0.004                  0.9898628        -9.92799
0.008                     0.9917       -19.76897
0.012                  0.9944814       -29.44016
0.016                  0.9978315       -38.86658
0.02                    1.001306        -47.9835
0.024                   1.004454       -56.73754
0.028                   1.006882       -65.08693
0.032                   1.008305       -73.00089
0.036                   1.008577       -80.45912
0.04                    1.007711        -87.4511
0.044                   1.005871       -93.97593
0.048                   1.003347       -100.0422
0.052                   1.000514       -105.6682
0.056                  0.9977764       -110.8811
0.06                   0.9955128       -115.7167
0.064                  0.9940196        -120.217
0.068                  0.9934713       -124.4277
0.072                  0.9938957       -128.3944
0.076                  0.9951774       -132.1598
0.08                   0.9970797       -135.7595
0.084                  0.9992859       -139.2211
0.088                   1.001451       -142.5621
0.092                   1.003256       -145.7912
0.096                    1.00445       -148.9095
0.1                     1.004887       -151.9129
0.104                   1.004541       -154.7944
0.108                   1.003505       -157.5472
0.112                   1.001973       -160.1671
0.116                   1.000207       -162.6543
0.12                   0.9984948       -165.0147
0.124                  0.9971035       -167.2596
0.128                  0.9962411       -169.4057
0.132                  0.9960226       -171.4724
0.136                  0.9964561       -173.4801
0.14                   0.9974447       -175.4471
0.144                  0.9988064       -177.3879
0.148                   1.000307       -179.3114
0.152                   1.001699        178.7796
0.156                   1.002763        176.8879
0.16                     1.00334         175.021
0.164                   1.003355        173.1889
0.168                   1.002826        171.4022
0.172                   1.001856        169.6703
0.176                    1.00062        167.9991
0.18                   0.9993267        166.3904
0.184                  0.9981919        164.8409
0.188                  0.9973977        163.3427
0.192                  0.9970657        161.8846
0.196                  0.9972375        160.4534
0.2                    0.9978695        159.0364
0.204                  0.9988432        157.6229
0.208                  0.9999863        156.2062
0.212                   1.001104        154.7841
0.216                    1.00201        153.3589
0.22                    1.002559        151.9367
0.224                   1.002668        150.5266
0.228                    1.00233        149.1384
0.232                   1.001611        147.7812
0.236                   1.000638        146.4618
0.24                   0.9995809        145.1834
0.244                  0.9986181        143.9451
0.248                  0.9979099        142.7421
0.252                  0.9975708         141.566
0.256                  0.9976505        140.4068
0.26                    0.998127        139.2541
0.264                  0.9989114        138.0991
0.268                   0.999864        136.9357
0.272                    1.00082        135.7619
0.276                   1.001617        134.5793
0.28                    1.002122        133.3932
0.284                   1.002254        132.2116
0.288                   1.001996        131.0432
0.292                   1.001399        129.8965
0.296                   1.000568        128.7781
0.3                    0.9996481        127.6915
0.304                  0.9987973        126.6366
0.308                  0.9981606        125.6096
0.312                  0.9978443        124.6038
0.316                  0.9978988        123.6103
0.32                     0.99831        122.6202
0.324                  0.9990028        121.6255
0.328                  0.9998541        120.6206
0.332                   1.000716        119.6036
0.336                    1.00144         118.576
0.34                    1.001904        117.5426
0.344                    1.00203        116.5105
0.348                     1.0018         115.488
0.352                   1.001258        114.4829
0.356                   1.000499        113.5016
0.36                   0.9996559        112.5475
0.364                   0.998875        111.6207
0.368                  0.9982914        110.7178
0.372                  0.9980047        109.8326
0.376                  0.9980627        108.9572
0.38                   0.9984526         108.083
0.384                  0.9991043        107.2028
0.388                  0.9999025        106.3114
0.392                   1.000707        105.4071
0.396                   1.001379        104.4913
0.4                     1.001802        103.5686
0.404                   1.001905         102.646
0.408                   1.001671        101.7313
0.412                   1.001142        100.8321
0.416                   1.000411        99.95431
0.42                   0.9996076        99.10126
0.424                  0.9988708        98.27291
0.428                  0.9983296        97.46596
0.432                  0.9980781        96.67434
0.436                  0.9981593        95.89029
0.44                   0.9985582        95.10575
0.444                  0.9992037        94.31369
0.448                  0.9999816        93.50942
0.452                   1.000755        92.69135
0.456                    1.00139        91.86122
0.46                    1.001774        91.02375
0.464                   1.001842        90.18584
0.468                   1.001581        89.35525
0.472                   1.001038        88.53937
0.476                   1.000309         87.7439
0.48                   0.9995204        86.97179
0.484                  0.9988115        86.22273
0.488                   0.998307        85.49326
0.492                  0.9980957        84.77712
0.496                  0.9982149        84.06658
0.5                    0.9986434        83.35366
0.504                  0.9993051        82.63161
0.508                   1.000083        81.89605
0.512                    1.00084        81.14583
0.516                   1.001442        80.38305
0.52                    1.001783        79.61275
0.524                   1.001802        78.84206
0.528                   1.001495        78.07878
0.532                   1.000915        77.33025
0.536                   1.000164        76.60188
0.54                   0.9993722        75.89628
0.544                  0.9986803        75.21274
0.548                  0.9982103        74.54726
0.552                  0.9980462        73.89331
0.556                  0.9982171        73.24291
0.56                   0.9986934        72.58806
0.564                  0.9993907         71.9222
0.568                   1.000185        71.24134
0.572                   1.000936        70.54483
0.576                    1.00151        69.83528
0.58                    1.001804        69.11827
0.584                   1.001764        68.40129
0.588                   1.001397         67.6924
0.592                   1.000765        66.99884
0.596                  0.9999792        66.32579
0.6                    0.9991771        65.67539
0.604                  0.9985016        65.04631
0.608                  0.9980734        64.43397
0.612                  0.9979697        63.83127
0.616                  0.9982109        63.22984
0.62                   0.9987552        62.62162
0.624                  0.9995066        62.00022
0.628                   1.000332        61.36209
0.632                   1.001085        60.70717
0.636                    1.00163        60.03885
0.64                     1.00187        59.36337
0.644                    1.00176        58.68875
0.648                   1.001317        58.02334
0.652                   1.000617        57.37436
0.656                  0.9997829        56.74674
0.66                   0.9989625        56.14198
0.664                  0.9983019        55.55805
0.668                  0.9979204        54.98952
0.672                  0.9978878        54.42861
0.676                  0.9982124        53.86649
0.68                   0.9988377        53.29492
0.684                  0.9996536        52.70773
0.688                   1.000515        52.10193
0.692                   1.001267        51.47824
0.696                   1.001775        50.84091
0.7                     1.001945        50.19708
0.704                   1.001745        49.55537
0.708                   1.001206         48.9245
0.712                    1.00042        48.31173
0.716                  0.9995256         47.7215
0.72                    0.998681        47.15468
0.724                  0.9980373        46.60826
0.728                  0.9977117        46.07582
0.732                  0.9977647        45.54873
0.736                  0.9981896        45.01759
0.74                   0.9989125          44.474
0.744                  0.9998051        43.91204
0.748                   1.000708        43.32943
0.752                   1.001459        42.72781
0.756                   1.001922        42.11253
0.76                     1.00201        41.49171
0.764                   1.001704        40.87473
0.768                   1.001053        40.27074
0.772                   1.000169        39.68689
0.776                   0.999209        39.12717
0.78                   0.9983425         38.5915
0.784                  0.9977264        38.07575
0.788                  0.9974737        37.57233
0.792                  0.9976333        37.07161
0.796                  0.9981802        36.56353
0.8                    0.9990187        36.03955
0.804                   1.000001        35.49417
0.808                   1.000949        34.92592
0.812                   1.001694        34.33761
0.816                   1.002098         33.7359
0.82                    1.002084        33.13001
0.824                    1.00165        32.53026
0.828                   1.000866        31.94614
0.832                  0.9998686        31.38476
0.836                  0.9988331        30.84938
0.84                   0.9979445        30.33885
0.844                  0.9973644        29.84765
0.848                  0.9972001        29.36684
0.852                  0.9974855        28.88559
0.856                  0.9981733         28.3932
0.86                   0.9991428        27.88103
0.864                   1.000221         27.3441
0.868                   1.001214        26.78199
0.872                   1.001941        26.19894
0.876                   1.002267        25.60306
0.88                    1.002126        25.00494
0.884                   1.001538        24.41584
0.888                   1.000599        23.84569
0.892                  0.9994721        23.30131
0.896                  0.9983569        22.78514
0.9                    0.9974533        22.29465
0.904                   0.996927        21.82268
0.908                  0.9968772        21.35867
0.912                  0.9973189        20.89047
0.916                  0.9981776        20.40666
0.92                   0.9993023        19.89859
0.924                   1.000493        19.36199
0.928                   1.001534        18.79776
0.932                   1.002235        18.21179
0.936                   1.002466        17.61396
0.94                    1.002176        17.01639
0.944                   1.001409        16.43139
0.948                   1.000294        15.86927
0.952                  0.9990259        15.33649
0.956                  0.9978299        14.83438
0.96                    0.996923        14.35873
0.964                  0.9964735        13.90044
0.968                  0.9965696        13.44703
0.972                  0.9972016        12.98491
0.976                  0.9982622        12.50189
0.98                   0.9995649        11.98944
0.984                   1.000877        11.44425
0.988                   1.001961        10.86885
0.992                   1.002617        10.27115
0.996                    1.00272        9.663072
1                       1.002239        9.058525
1.004                   1.001252        8.470983
1.008                   0.999923        7.911127
1.012                  0.9984857        7.384873
1.016                   0.997196        6.892143
1.02                   0.9962886        6.426689
1.024                   0.995934        5.977037
1.028                  0.9962046        5.528483
1.032                  0.9970605         5.06577
1.036                  0.9983543        4.575922
1.04                   0.9998572        4.050658
1.044                   1.001299        3.487917
1.048                   1.002417        2.892235
1.052                   1.003002        2.273952
1.056                   1.002937        1.647436
1.06                     1.00222        1.028641
1.064                   1.000964        0.432358
1.068                  0.9993816      -0.1304018
1.072                  0.9977503      -0.6544916
1.076                   0.996362       -1.141779
1.08                   0.9954717       -1.601072
1.084                  0.9952497       -2.046731
1.088                  0.9957477       -2.496141
1.092                  0.9968874       -2.966513
1.096                  0.9984719       -3.471668
1.1                     1.000221       -4.019461
1.104                   1.001819       -4.610368
1.108                   1.002975        -5.23727
1.112                   1.003469       -5.886903
1.116                   1.003197       -6.541973
1.12                     1.00219        -7.18401
1.124                   1.000609       -7.796759
1.128                  0.9987231       -8.368816
1.132                  0.9968647        -8.89607
1.136                  0.9953685       -9.382671
1.14                   0.9945128       -9.840636
1.144                  0.9944665        -10.2879
1.148                  0.9952535       -10.74515
1.152                  0.9967468       -11.23191
1.156                  0.9986875       -11.76295
1.16                    1.000731       -12.34548
1.164                   1.002508       -12.97784
1.168                    1.00369       -13.64982
1.172                   1.004047       -14.34437
1.176                   1.003494        -15.0405
1.18                    1.002101       -15.71674
1.184                   1.000093       -16.35483
1.188                  0.9978113       -16.94304
1.192                  0.9956557       -17.47857
1.196                  0.9940169       -17.96851
1.2                    0.9932025       -18.42901
1.204                  0.9933786       -18.88263
1.208                  0.9945338       -19.35428
1.212                  0.9964774       -19.86649
1.216                  0.9988706       -20.43519
1.22                    1.001287       -21.06674
1.224                   1.003286       -21.75675
1.228                   1.004493       -22.49092
1.232                   1.004667       -23.24742
1.236                    1.00374       -24.00048
1.24                     1.00184       -24.72462
1.244                  0.9992731       -25.39904
1.248                  0.9964728       -26.01143
1.252                  0.9939329       -26.56068
1.256                  0.9921172       -27.05778
1.26                   0.9913739       -27.52448
1.264                  0.9918664       -27.98962
1.268                  0.9935355       -28.48387
1.272                  0.9961052       -29.03389
1.276                  0.9991288       -29.65724
1.28                    1.002066       -30.35917
1.284                   1.004381       -31.13169
1.288                   1.005633       -31.95502
1.292                   1.005557       -32.80079
1.296                   1.004114       -33.63667
1.3                     1.001503       -34.43151
1.304                  0.9981397       -35.16067
1.308                  0.9945899       -35.81069
1.312                  0.9914786       -36.38253
1.316                  0.9893787       -36.89248
1.32                   0.9887013       -37.37019
1.324                  0.9896113       -37.85361
1.328                  0.9919865       -38.38194
1.332                  0.9954309       -38.98807
1.336                  0.9993415       -39.69226
1.34                    1.003014       -40.49845
1.344                   1.005765       -41.39375
1.348                   1.007053       -42.35061
1.352                   1.006569       -43.33125
1.356                   1.004304       -44.29347
1.36                    1.000557       -45.19722
1.364                  0.9959025       -46.01134
1.368                  0.9911066        -46.7197
1.372                  0.9870049        -47.3255
1.376                  0.9843516       -47.85276
1.38                   0.9836739       -48.34341
1.384                  0.9851571       -48.85029
1.388                  0.9885927       -49.42708
1.392                  0.9934032       -50.11771
1.396                  0.9987379       -50.94793
1.4                     1.003621       -51.92081
1.404                   1.007118       -53.01654
1.408                   1.008497       -54.19588
1.412                   1.007353       -55.40614
1.416                   1.003694       -56.58869
1.42                   0.9979541       -57.68755
1.424                  0.9909615       -58.65852
1.428                  0.9838249        -59.4782
1.432                  0.9777634       -60.15132
1.436                  0.9738907       -60.71394
1.44                   0.9729917       -61.23028
1.444                    0.97534       -61.78235
1.448                  0.9806106       -62.45386
1.452                  0.9879098        -63.3135
1.456                  0.9959219       -64.40156
1.46                     1.00313       -65.72372
1.464                   1.008067       -67.25135
1.468                    1.00955       -68.92688
1.472                   1.006872       -70.67176
1.476                  0.9999382       -72.39611
1.48                   0.9893263       -74.00964
1.484                  0.9762744       -75.43478
1.488                   0.962562       -76.62236
1.492                  0.9502802        -77.5685
1.496                  0.9414807       -78.32834
1.5                    0.9377498       -79.01919
1.504                  0.9397959       -79.80637
1.508                    0.94718       -80.87292
1.512                  0.9582823        -82.3828
1.516                  0.9705096       -84.45239
1.52                   0.9806588       -87.13896
1.524                  0.9853204       -90.44509
1.528                  0.9812321       -94.33132
1.532                  0.9655469       -98.73018
1.536                  0.9360148       -103.5563
1.54                   0.8910925        -108.711
1.544                  0.8300028       -114.0803
1.548                  0.7527587       -119.5235
1.552                  0.6601694       -124.8437
1.556                  0.5538614       -129.7172
1.56                   0.4364031       -133.4946
1.564                  0.3119138       -134.5157
1.568                  0.1895215       -126.9173
1.572                  0.1102518       -86.46378
1.576                  0.1682807       -37.09696
1.58                   0.2879768       -26.04025
1.584                  0.4133864        -26.1613
1.588                   0.532973       -29.65769
1.592                  0.6420595       -34.47138
1.596                  0.7377894       -39.83966
1.6                    0.8182977       -45.39749
1.604                  0.8825479       -50.93005
1.608                  0.9303079       -56.28674
1.612                  0.9621526       -61.34662
1.616                  0.9794548       -66.00412
1.62                    0.984346       -70.16519
1.624                   0.979628       -73.75086
1.628                  0.9686172       -76.70719
1.632                  0.9548944       -79.02052
1.636                  0.9419523       -80.73395
1.64                   0.9327602       -81.95706
1.644                  0.9293312       -82.85916
1.648                  0.9324213        -83.6416
1.652                  0.9414851       -84.49614
1.656                  0.9549137       -85.56662
1.66                   0.9704692       -86.92822
1.664                  0.9857668       -88.58773
1.668                  0.9986851       -90.49769
1.672                   1.007652       -92.57552
1.676                   1.011797       -94.72083
1.68                    1.011007       -96.82995
1.684                   1.005879       -98.80759
1.688                  0.9976104       -100.5774
1.692                  0.9878191       -102.0916
1.696                  0.9782988       -103.3399
1.7                    0.9707385       -104.3533
1.704                  0.9664385       -105.2016
1.708                  0.9660842       -105.9816
1.712                  0.9696383       -106.7973
1.716                  0.9763805       -107.7391
1.72                   0.9850821       -108.8669
1.724                  0.9942614       -110.2026
1.728                   1.002454       -111.7311
1.732                   1.008442        -113.408
1.736                   1.011425       -115.1696
1.74                    1.011105       -116.9433
1.744                   1.007703       -118.6576
1.748                   1.001915       -120.2517
1.752                  0.9947915       -121.6832
1.756                  0.9875813       -122.9358
1.76                   0.9815254       -124.0224
1.764                  0.9776502       -124.9849
1.768                  0.9765884       -125.8869
1.772                  0.9784694       -126.8021
1.776                  0.9829099       -127.7993
1.78                   0.9891019       -128.9299
1.784                  0.9959772       -130.2193
1.788                   1.002402       -131.6651
1.792                   1.007367       -133.2401
1.796                   1.010137       -134.8991
1.8                     1.010351       -136.5862
1.804                   1.008058       -138.2435
1.808                   1.003702       -139.8188
1.812                  0.9980514       -141.2733
1.816                  0.9920725       -142.5873
1.82                     0.98678       -143.7645
1.824                  0.9830652       -144.8322
1.828                  0.9815427       -145.8373
1.832                  0.9824414       -146.8375
1.836                  0.9855704       -147.8909
1.84                    0.990362       -149.0443
1.844                  0.9959851       -150.3256
1.848                   1.001498       -151.7401
1.852                   1.006007       -153.2712
1.856                   1.008812       -154.8851
1.86                    1.009498       -156.5364
1.864                   1.008002       -158.1751
1.868                   1.004602       -159.7543
1.872                  0.9998848       -161.2363
1.876                  0.9946433       -162.5987
1.88                   0.9897572       -163.8384
1.884                  0.9860462       -164.9733
1.888                  0.9841286       -166.0394
1.892                   0.984313       -167.0848
1.896                  0.9865449       -168.1611
1.9                    0.9904209       -169.3131
1.904                  0.9952688        -170.571
1.908                    1.00027       -171.9461
1.912                   1.004602       -173.4298
1.916                   1.007569       -174.9961
1.92                    1.008712       -176.6068
1.924                   1.007871       -178.2176
1.928                   1.005202       -179.7842
1.932                   1.001158         178.731
1.936                  0.9964132        177.3531
1.94                   0.9917593        176.0905
1.944                  0.9879767        174.9328
1.948                  0.9857013        173.8515
1.952                  0.9853122         172.805
1.956                  0.9868644        171.7461
1.96                   0.9900797        170.6307
1.964                  0.9944019        169.4258
1.968                  0.9990976        168.1152
1.972                   1.003385        166.7012
1.976                   1.006565        165.2035
1.98                    1.008127        163.6548
1.984                   1.007828         162.096
1.988                   1.005726        160.5696
1.992                   1.002171        159.1139
1.996                  0.9977491        157.7569
2                      0.9931951        156.5116
2.004                  0.9892718        155.3734
2.008                  0.9866424        154.3197
2.012                  0.9857526        153.3137
2.016                  0.9867506        152.3106
2.02                   0.9894598        151.2659
2.024                  0.9934113        150.1441
2.028                  0.9979315        148.9241
2.032                    1.00226         147.603
2.036                   1.005678        146.1953
2.04                    1.007624        144.7297
2.044                   1.007779        143.2448
2.048                   1.006117        141.7824
2.052                   1.002905        140.3821
2.056                  0.9986672         139.075
2.06                   0.9941033        137.8784
2.064                  0.9899767        136.7923
2.068                  0.9869883        135.7991
2.072                  0.9856511        134.8649
2.076                  0.9861981        133.9461
2.08                    0.988536        132.9972
2.084                   0.992263        131.9791
2.088                  0.9967417        130.8663
2.092                   1.001212        129.6512
2.096                   1.004922        128.3438
2.1                     1.007251        126.9703
2.104                   1.007806        125.5678
2.108                   1.006482        124.1789
2.112                   1.003483        122.8453
2.116                  0.9992882        121.6014
2.12                    0.994585         120.469
2.124                  0.9901594        119.4526
2.128                  0.9867653         118.538
2.132                  0.9849926        117.6935
2.136                  0.9851577        116.8752
2.14                   0.9872419        116.0349
2.144                  0.9908918        115.1293
2.148                  0.9954834         114.128
2.152                   1.000233        113.0185
2.156                   1.004332        111.8074
2.16                    1.007084        110.5191
2.164                    1.00801        109.1909
2.168                   1.006931        107.8672
2.172                   1.003993        106.5933
2.176                  0.9996512        105.4084
2.18                   0.9946063        104.3392
2.184                  0.9896953        103.3949
2.188                  0.9857552        102.5644
2.192                  0.9834766        101.8168
2.196                  0.9832741         101.106
2.2                    0.9852044        100.3792
2.204                  0.9889488        99.58682
2.208                  0.9938693        98.69174
2.212                  0.9991226          97.676
2.216                   1.003805        96.54304
2.22                    1.007106        95.31631
2.224                   1.008435        94.03491
2.228                    1.00752        92.74752
2.232                    1.00445        91.50531
2.236                  0.9996731        90.35456
2.24                   0.9939353        89.32923
2.244                  0.9881729        88.44454
2.248                  0.9833626        87.69271
2.252                  0.9803518        87.04234
2.256                  0.9796986         86.4425
2.26                   0.9815576        85.83161
2.264                  0.9856391        85.14927
2.268                  0.9912551        84.34793
2.272                  0.9974404        83.40148
2.276                   1.003119        82.30906
2.28                    1.007286        81.09414
2.284                   1.009165         79.8001
2.288                   1.008337        78.48351
2.292                   1.004808        77.20631
2.296                  0.9990271         76.0272
2.3                    0.9918371        74.99281
2.304                  0.9843636        74.12901
2.308                  0.9778469        73.43389
2.312                  0.9734307        72.87452
2.316                  0.9719456         72.3898
2.32                   0.9737319        71.90019
2.324                  0.9785495        71.32306
2.328                  0.9856028        70.58896
2.332                  0.9936725        69.65485
2.336                   1.001323        68.51063
2.34                    1.007139        67.17926
2.344                   1.009943        65.71189
2.348                   1.008979        64.18029
2.352                   1.004038        62.66787