! TOUCHSTONE file generated by CST MICROWAVE STUDIO
! Date and time: Tue Jun  7 21:11:33 2022
! Project name: AppElm_antenne_patch_FR4.cst
! Parameters = {L=45; W=58.5; e=0.035; h=1.6; lambda=0.190476; ls=120; w0=1.6; w1=0.533333; ws=114; y0=20; y1=23.81}
! Header version: 2018
! Port assignment regex: !\s*Touchstone port\s*([0-9]+)\s*=\s*(CST MWS port|CST DS port)\s*([0-9]+|Zmin|Zmax)\s*\(\"(.*)\"\)(\s*mode\s*([0-9]+))?.*
! Touchstone port assignment:
! Touchstone port 1 = CST MWS port 1 ("")
# GHz S MA R 50
0                      0.9892144              -0
0.004                   0.989857       -9.928824
0.008                  0.9916965       -19.77062
0.012                  0.9944814       -29.44261
0.016                  0.9978359       -38.86982
0.02                    1.001315       -47.98747
0.024                   1.004467       -56.74223
0.028                     1.0069       -65.09227
0.032                   1.008325       -73.00686
0.036                   1.008598       -80.46562
0.04                    1.007731       -87.45807
0.044                   1.005888       -93.98328
0.048                    1.00336       -100.0498
0.052                   1.000521       -105.6759
0.056                  0.9977777       -110.8888
0.06                   0.9955082       -115.7242
0.064                  0.9940101       -120.2242
0.068                  0.9934586       -124.4344
0.072                   0.993882       -128.4006
0.076                  0.9951649       -132.1655
0.08                   0.9970702       -135.7649
0.084                  0.9992807       -139.2261
0.088                   1.001451       -142.5669
0.092                    1.00326        -145.796
0.096                   1.004456       -148.9144
0.1                     1.004893       -151.9178
0.104                   1.004545       -154.7994
0.108                   1.003504       -157.5523
0.112                   1.001966       -160.1721
0.116                   1.000193       -162.6591
0.12                   0.9984738        -165.019
0.124                  0.9970778       -167.2634
0.128                  0.9962135       -169.4088
0.132                  0.9959971       -171.4748
0.136                  0.9964366       -173.4818
0.14                   0.9974347       -175.4483
0.144                   0.998808       -177.3888
0.148                   1.000321       -179.3123
0.152                   1.001724        178.7785
0.156                   1.002796        176.8863
0.16                    1.003377        175.0188
0.164                    1.00339         173.186
0.168                   1.002854        171.3987
0.172                   1.001873        169.6664
0.176                   1.000623        167.9951
0.18                   0.9993154        166.3866
0.184                  0.9981678        164.8376
0.188                   0.997365        163.3403
0.192                  0.9970297         161.883
0.196                  0.9972043        160.4528
0.2                     0.997845        159.0365
0.204                  0.9988317        157.6236
0.208                    0.99999        156.2072
0.212                   1.001122        154.7848
0.216                    1.00204        153.3591
0.22                    1.002595        151.9362
0.224                   1.002704        150.5252
0.228                   1.002359        149.1363
0.232                   1.001627        147.7785
0.236                   1.000638        146.4589
0.24                   0.9995628        145.1807
0.244                  0.9985847        143.9431
0.248                  0.9978661         142.741
0.252                  0.9975239        141.5661
0.256                  0.9976087        140.4081
0.26                   0.9980981        139.2564
0.264                  0.9989012         138.102
0.268                  0.9998753        136.9388
0.272                   1.000852        135.7646
0.276                   1.001665        134.5811
0.28                    1.002179         133.394
0.284                   1.002311         132.211
0.288                   1.002045        131.0414
0.292                   1.001431        129.8939
0.296                   1.000577         128.775
0.3                    0.9996324        127.6885
0.304                  0.9987597        126.6344
0.308                  0.9981068        125.6086
0.312                  0.9977839        124.6042
0.316                   0.997842        123.6122
0.32                    0.998267        122.6233
0.324                  0.9989809        121.6294
0.328                  0.9998576        120.6249
0.332                   1.000744        119.6075
0.336                   1.001489        118.5791
0.34                    1.001964        117.5443
0.344                   1.002091        116.5107
0.348                   1.001851        115.4868
0.352                   1.001289        114.4807
0.356                   1.000503         113.499
0.36                   0.9996322        112.5451
0.364                  0.9988264        111.6191
0.368                  0.9982257        110.7176
0.372                   0.997933        109.8342
0.376                  0.9979978        108.9605
0.38                   0.9984066        108.0878
0.384                  0.9990859        107.2085
0.388                  0.9999161        106.3173
0.392                   1.000752        105.4124
0.396                   1.001448        104.4954
0.4                     1.001885         103.571
0.404                   1.001988        102.6464
0.408                    1.00174          101.73
0.412                   1.001185        100.8294
0.416                   1.000422        99.95107
0.42                   0.9995832        99.09824
0.424                  0.9988155        98.27091
0.428                  0.9982527        97.46562
0.432                  0.9979934        96.67605
0.436                  0.9980822        95.89408
0.44                   0.9985024        95.11124
0.444                  0.9991797        94.32025
0.448                  0.9999945         93.5162
0.452                   1.000803        92.69744
0.456                   1.001465        91.86586
0.46                    1.001863         91.0264
0.464                   1.001929        90.18632
0.468                   1.001651        89.35377
0.472                   1.001078         88.5365
0.476                    1.00031        87.74046
0.48                   0.9994817        86.96877
0.484                  0.9987387        86.22107
0.488                  0.9982122        85.49362
0.492                  0.9979954        84.77992
0.496                  0.9981267        84.07176
0.5                    0.9985834        83.36072
0.504                  0.9992847        82.63975
0.508                   1.000107        81.90426
0.512                   1.000904        81.15304
0.516                   1.001537         80.3884
0.52                    1.001892        79.61567
0.524                   1.001906        78.84238
0.528                   1.001576        78.07686
0.532                   1.000959        77.32679
0.536                   1.000161         76.5979
0.54                    0.999323        75.89294
0.544                  0.9985927        75.21107
0.548                  0.9980995        74.54807
0.552                  0.9979317        73.89695
0.556                  0.9981194        73.24925
0.56                   0.9986305        72.59649
0.564                  0.9993745        71.93171
0.568                    1.00022        71.25077
0.572                   1.001016        70.55294
0.576                   1.001623        69.84112
0.58                     1.00193         69.1213
0.584                   1.001882        68.40142
0.588                   1.001486        67.69005
0.592                   1.000809        66.99493
0.596                  0.9999704         66.3215
0.6                    0.9991173        65.67202
0.604                  0.9984015        65.04505
0.608                  0.9979515        64.43558
0.612                   0.997849        63.83606
0.616                  0.9981142        63.23756
0.62                   0.9987019        62.63144
0.624                  0.9995084        62.01091
0.628                   1.000391        61.37228
0.632                   1.001193        60.71553
0.636                    1.00177        60.04436
0.64                    1.002018        59.36552
0.644                   1.001891        58.68758
0.648                   1.001409        58.01949
0.652                   1.000653        57.36901
0.656                  0.9997559        56.74129
0.66                   0.9988767        56.13795
0.664                  0.9981721        55.55671
0.668                  0.9977693        54.99172
0.672                  0.9977423        54.43456
0.676                  0.9980988        53.87575
0.68                   0.9987767        53.30646
0.684                  0.9996569         52.7201
0.688                   1.000582        52.11354
0.692                   1.001388        51.48764
0.696                   1.001928        50.84706
0.7                     1.002104        50.19949
0.704                   1.001881        49.55424
0.708                   1.001295        48.92071
0.712                   1.000446        48.30663
0.716                  0.9994845        47.71675
0.72                   0.9985802        47.15191
0.724                  0.9978961        46.60877
0.728                  0.9975574        46.08038
0.732                  0.9976281        45.55736
0.736                  0.9980989        45.02956
0.74                   0.9988885        44.48797
0.744                  0.9998575        43.92628
0.748                   1.000833        43.34212
0.752                    1.00164        42.73736
0.756                   1.002132        42.11792
0.76                    1.002217        41.49257
0.764                   1.001875        40.87152
0.768                   1.001163         40.2646
0.772                   1.000202        39.67954
0.776                  0.9991616        39.12053
0.78                   0.9982274        38.58741
0.784                  0.9975677        38.07561
0.788                  0.9973038        37.57687
0.792                   0.997487        37.08065
0.796                  0.9980882        36.57613
0.8                    0.9990023        36.05408
0.804                   1.000067        35.50866
0.808                   1.001091        34.93838
0.812                    1.00189        34.34643
0.816                   1.002316        33.74008
0.82                    1.002288        33.12943
0.824                   1.001805        32.52566
0.828                   1.000947        31.93902
0.832                   0.999862        31.37711
0.836                  0.9987417        30.84338
0.84                   0.9977868        30.33645
0.844                  0.9971716        29.85022
0.848                   0.997011        29.37487
0.852                  0.9973395         28.8986
0.856                  0.9981028         28.4098
0.86                   0.9991679        27.89917
0.864                   1.000345        27.36143
0.868                   1.001424        26.79629
0.872                   1.002207        26.20847
0.876                   1.002551        25.60692
0.88                    1.002387        25.00323
0.884                   1.001737         24.4096
0.888                   1.000709         23.8368
0.892                  0.9994818        23.29213
0.896                  0.9982732        22.77812
0.9                    0.9973008        22.29187
0.904                   0.996743        21.82548
0.908                   0.996706        21.36733
0.912                  0.9972028        20.90421
0.916                  0.9981497         20.4237
0.92                     0.99938        19.91652
0.924                   1.000674        19.37821
0.928                   1.001799        18.80991
0.932                   1.002547        18.21822
0.936                   1.002779          17.614
0.94                    1.002445         17.0105
0.944                   1.001593        16.42111
0.948                   1.000368        15.85696
0.952                  0.9989836        15.32493
0.956                  0.9976862        14.82631
0.96                   0.9967115        14.35633
0.964                  0.9962409         13.9049
0.968                  0.9963673        13.45832
0.972                  0.9970768        13.00175
0.976                  0.9982489        12.52197
0.98                   0.9996773        12.00986
0.984                   1.001107        11.46201
0.988                    1.00228         10.8814
0.992                   1.002981        10.27685
0.996                   1.003074        9.661477
1                       1.002533        9.050473
1.004                   1.001442        8.458475
1.008                  0.9999865        7.897004
1.012                  0.9984215        7.372324
1.016                  0.9970264        6.884151
1.02                   0.9960564        6.425457
1.024                   0.995694        5.983559
1.028                  0.9960148        5.542322
1.032                  0.9969705        5.085115
1.036                  0.9983968        4.597909
1.04                    1.000041        4.071901
1.044                   1.001608        3.505117
1.048                   1.002811        2.902775
1.052                   1.003427        2.276361
1.056                   1.003331        1.641658
1.06                    1.002526        1.016066
1.064                    1.00114       0.4156187
1.068                  0.9994076      -0.1478565
1.072                  0.9976335      -0.6689852
1.076                  0.9961359       -1.150071
1.08                    0.995191       -1.600978
1.084                  0.9949804       -2.037572
1.088                  0.9955557        -2.47891
1.092                  0.9968257       -2.943724
1.096                  0.9985712       -3.446902
1.1                     1.000483        -3.99671
1.104                   1.002218       -4.593292
1.108                   1.003458       -5.228637
1.112                    1.00397       -5.888023
1.116                   1.003644       -6.552464
1.12                     1.00252       -7.201878
1.124                   1.000778       -7.818643
1.128                  0.9987163       -8.390602
1.132                  0.9966974       -8.913561
1.136                  0.9950859       -9.392352
1.14                   0.9941823       -9.840358
1.144                  0.9941648       -10.27734
1.148                  0.9950538        -10.7259
1.152                  0.9967041       -11.20723
1.156                  0.9988286       -11.73713
1.16                    1.001049       -12.32305
1.164                   1.002964       -12.96277
1.168                   1.004218       -13.64477
1.172                   1.004568       -14.35027
1.176                   1.003926       -15.05631
1.18                    1.002378       -15.73961
1.184                   1.000175       -16.38052
1.188                  0.9976902        -16.9666
1.192                  0.9953624       -17.49519
1.196                  0.9936146       -17.97443
1.2                    0.9927773       -18.42227
1.204                  0.9930238       -18.86355
1.208                  0.9943332       -19.32543
1.212                  0.9964899       -19.83228
1.216                  0.9991188       -20.40101
1.22                    1.001753       -21.03803
1.224                   1.003914       -21.73803
1.228                   1.005201       -22.48503
1.232                   1.005355       -23.25504
1.236                   1.004316       -24.01999
1.24                    1.002228       -24.75237
1.244                  0.9994301       -25.42985
1.248                  0.9963986       -26.03946
1.252                  0.9936699       -26.58048
1.256                  0.9917446       -27.06534
1.26                   0.9909943       -27.51806
1.264                  0.9915861        -27.9702
1.268                  0.9934455       -28.45504
1.272                  0.9962626       -29.00117
1.276                  0.9995455       -29.62705
1.28                    1.002707       -30.33763
1.284                   1.005167       -31.12355
1.288                   1.006457        -31.9628
1.292                     1.0063       -32.82439
1.296                   1.004666       -33.67323
1.3                     1.001783       -34.47581
1.304                  0.9981075       -35.20583
1.308                  0.9942604       -35.84926
1.312                  0.9909195       -36.40778
1.316                  0.9887013       -36.89972
1.32                    0.988042       -37.35779
1.324                  0.9891077       -37.82344
1.328                  0.9917515       -38.33912
1.332                  0.9955321       -38.93996
1.336                  0.9997885       -39.64709
1.34                    1.003757       -40.46385
1.344                   1.006704       -41.37541
1.348                   1.008053       -42.35139
1.352                   1.007487       -43.35073
1.356                   1.005009       -44.32795
1.36                    1.000957       -45.24019
1.364                  0.9959588       -46.05443
1.368                  0.9908489       -46.75401
1.372                   0.986527        -47.3433
1.376                   0.983799       -47.84912
1.38                   0.9832188       -48.31747
1.384                  0.9849665       -48.80573
1.388                  0.9887955       -49.37156
1.392                  0.9940643       -50.06144
1.396                  0.9998448       -50.90175
1.4                     1.005084       -51.89427
1.404                   1.008785       -53.01635
1.408                   1.010176       -54.22492
1.412                   1.008844       -55.46295
1.416                   1.004816       -56.66749
1.42                   0.9985805       -57.77884
1.424                  0.9910418       -58.75014
1.428                  0.9834008        -59.5571
1.432                  0.9769695        -60.2058
1.436                   0.972937       -60.73621
1.44                   0.9721294       -61.21845
1.444                  0.9748149       -61.74126
1.448                  0.9806154       -62.39433
1.452                  0.9885471       -63.24996
1.456                  0.9971842       -64.34932
1.46                    1.004903       -65.69611
1.464                   1.010147        -67.2577
1.468                   1.011678       -68.97126
1.472                   1.008774       -70.75237
1.476                   1.001366       -72.50517
1.48                   0.9901057       -74.13376
1.484                  0.9763419       -75.55603
1.488                  0.9619974       -76.72049
1.492                  0.9493191       -77.62454
1.496                  0.9404988       -78.32944
1.5                    0.9372122       -78.96327
1.504                  0.9401772       -79.70479
1.508                   0.948874       -80.74931
1.512                  0.9615291       -82.26863
1.516                  0.9753581       -84.38127
1.52                    0.986968       -87.14219
1.524                  0.9927857        -90.5493
1.528                  0.9894262       -94.55858
1.532                  0.9739621       -99.09925
1.536                  0.9441016       -104.0848
1.54                   0.8982922        -109.418
1.544                  0.8357726       -114.9898
1.548                   0.756588       -120.6687
1.552                  0.6615843       -126.2752
1.556                  0.5524074       -131.5166
1.56                   0.4315796       -135.8008
1.564                  0.3029727       -137.5618
1.568                  0.1749013       -130.7072
1.572                 0.09224618       -82.92575
1.576                  0.1664603        -30.6329
1.58                   0.2939178       -22.55469
1.584                  0.4230727       -24.05367
1.588                  0.5448559       -28.29094
1.592                  0.6552066       -33.56716
1.596                  0.7514814        -39.2539
1.6                    0.8319216       -45.04516
1.604                  0.8955698       -50.75521
1.608                  0.9422731        -56.2488
1.612                  0.9726969       -61.41313
1.616                  0.9883189       -66.14676
1.62                   0.9913907       -70.35739
1.624                  0.9848475       -73.96659
1.628                  0.9721454       -76.92103
1.632                  0.9570003       -79.20915
1.636                  0.9430159       -80.87893
1.64                   0.9332258       -82.04824
1.644                  0.9296397         -82.897
1.648                  0.9329383       -83.63685
1.652                  0.9424457       -84.46642
1.656                  0.9564013       -85.53138
1.66                   0.9724275        -86.9043
1.664                  0.9880377       -88.58669
1.668                   1.001054       -90.52504
1.672                   1.009893       -92.63114
1.676                    1.01371        -94.8001
1.68                    1.012444       -96.92476
1.684                   1.006765       -98.90764
1.688                  0.9979521       -100.6715
1.692                  0.9877014       -102.1694
1.696                  0.9778728       -103.3932
1.7                    0.9701957       -104.3781
1.704                  0.9659765       -105.1987
1.708                  0.9658713       -105.9567
1.712                  0.9697842       -106.7596
1.716                  0.9769208       -107.6991
1.72                   0.9859795       -108.8341
1.724                   0.995421        -110.184
1.728                   1.003746       -111.7305
1.732                   1.009728       -113.4258
1.736                    1.01258       -115.2033
1.74                    1.012035       -116.9881
1.744                    1.00836       -118.7076
1.748                   1.002298       -120.3003
1.752                  0.9949455       -121.7249
1.756                  0.9875882       -122.9662
1.76                   0.9814873       -124.0397
1.764                  0.9776696         -124.99
1.768                  0.9767482       -125.8832
1.772                  0.9788174       -126.7947
1.776                  0.9834508       -127.7939
1.78                   0.9897997       -128.9312
1.784                  0.9967652       -130.2306
1.788                   1.003197       -131.6876
1.792                   1.008087       -133.2729
1.796                   1.010714       -134.9396
1.8                     1.010741       -136.6306
1.804                    1.00825       -138.2875
1.808                   1.003718       -139.8583
1.812                  0.9979387       -141.3049
1.816                  0.9918992        -142.609
1.82                     0.98662       -143.7763
1.824                  0.9829846       -144.8356
1.828                  0.9815873       -145.8355
1.832                  0.9826288       -146.8345
1.836                  0.9858873       -147.8905
1.84                   0.9907692       -149.0493
1.844                  0.9964269       -150.3375
1.848                   1.001915       -151.7587
1.852                   1.006348       -153.2951
1.856                   1.009042       -154.9116
1.86                    1.009608       -156.5623
1.864                   1.008005       -158.1975
1.868                   1.004537       -159.7708
1.872                  0.9998032       -161.2455
1.876                  0.9946029       -162.6008
1.88                   0.9898094       -163.8351
1.884                  0.9862251       -164.9674
1.888                  0.9844434       -166.0344
1.892                  0.9847454       -167.0844
1.896                   0.987052       -168.1677
1.9                    0.9909442        -169.328
1.904                  0.9957454       -170.5939
1.908                   1.000645        -171.975
1.912                    1.00484       -173.4616
1.916                    1.00766       -175.0273
1.92                    1.008673       -176.6341
1.924                   1.007742        -178.238
1.928                   1.005043       -179.7963
1.932                   1.001036        178.7272
1.936                  0.9963888        177.3561
1.94                   0.9918766        176.0971
1.944                  0.9882523         174.939
1.948                  0.9861198         173.853
1.952                  0.9858274        172.7984
1.956                  0.9874068        171.7294
1.96                   0.9905708        170.6039
1.964                  0.9947684        169.3908
1.968                  0.9992864        168.0757
1.972                   1.003374        166.6619
1.976                   1.006366         165.169
1.98                    1.007787        163.6293
1.984                   1.007421        162.0821
1.988                   1.005342        160.5681
1.992                   1.001898        159.1236
1.996                  0.9976627        157.7742
2                      0.9933385        156.5316
2.004                  0.9896478        155.3901
2.008                  0.9872095        154.3274
2.012                   0.986431        153.3082
2.016                  0.9874347        152.2899
2.02                   0.9900375         151.231
2.024                  0.9937858        150.0986
2.028                  0.9980389        148.8738
2.032                   1.002082        147.5545
2.036                   1.005246        146.1552
2.04                    1.007015        144.7032
2.044                   1.007104        143.2351
2.048                   1.005502        141.7898
2.052                   1.002472        140.4042
2.056                  0.9985106        139.1064
2.06                   0.9942721        137.9118
2.064                  0.9904626        136.8195
2.068                  0.9877226        135.8124
2.072                  0.9865142        134.8589
2.076                  0.9870388        133.9188
2.08                   0.9891991        132.9505
2.084                  0.9926191        131.9188
2.088                  0.9967105        130.8007
2.092                    1.00078        129.5898
2.096                   1.004143        128.2956
2.1                     1.006242        126.9423
2.104                   1.006726        125.5639
2.108                   1.005511        124.1991
2.112                   1.002787        122.8854
2.116                  0.9989941        121.6536
2.12                    0.994753        120.5227
2.124                  0.9907682        119.4964
2.128                  0.9877103        118.5614
2.132                  0.9860995        117.6891
2.136                  0.9862112        116.8406
2.14                   0.9880242        115.9734
2.144                   0.991224        115.0493
2.148                  0.9952585        114.0416
2.152                  0.9994379        112.9391
2.156                   1.003052        111.7477
2.16                    1.005487        110.4887
2.164                   1.006326        109.1947
2.168                   1.005411        107.9048
2.172                   1.002868        106.6586
2.176                  0.9990944          105.49
2.18                   0.9946947        104.4224
2.184                   0.990391        103.4635
2.188                  0.9869032        102.6038
2.192                  0.9848253        101.8171
2.196                  0.9845165        101.0644
2.2                    0.9860332        100.3009
2.204                  0.9891156        99.48431
2.208                  0.9932324        98.58264
2.212                  0.9976757        97.57981
2.216                   1.001682        96.47758
2.22                    1.004561        95.29486
2.224                   1.005804        94.06398
2.228                   1.005166         92.8257
2.232                   1.002706        91.62301
2.236                  0.9987794        90.49493
2.24                   0.9939946        89.47036
2.244                  0.9891184         88.5627
2.248                  0.9849556        87.76671
2.252                  0.9822116         87.0579
2.256                  0.9813644        86.39589
2.26                   0.9825715         85.7313
2.264                  0.9856338        85.01477
2.268                  0.9900267        84.20626
2.272                  0.9949907        83.28215
2.276                  0.9996611        82.23881
2.28                    1.003212        81.09255
2.284                   1.004987        79.87639
2.288                   1.004605        78.63488
2.292                   1.002024        77.41772
2.296                  0.9975508        76.27268
2.3                    0.9918149        75.23856
2.304                   0.985679         74.3383
2.308                  0.9801123        73.57362
2.312                  0.9760315        72.92256
2.316                  0.9741361        72.34114
2.32                   0.9747693           71.77
2.324                  0.9778401        71.14491
2.328                  0.9828235        70.40904
2.332                   0.988843        69.52322
2.336                  0.9948156        68.47238
2.34                   0.9996253        67.26726
2.344                   1.002298        65.94182
2.348                   1.002152          64.548
2.352                  0.9989025        63.14885