! TOUCHSTONE file generated by CST MICROWAVE STUDIO
! Date and time: Tue Jun  7 21:11:30 2022
! Project name: AppElm_antenne_patch_FR4.cst
! Parameters = {L=45; W=58.5; e=0.035; h=1.6; lambda=0.190476; ls=120; w0=1.6; w1=0.533333; ws=90; y0=20; y1=23.81}
! Header version: 2018
! Port assignment regex: !\s*Touchstone port\s*([0-9]+)\s*=\s*(CST MWS port|CST DS port)\s*([0-9]+|Zmin|Zmax)\s*\(\"(.*)\"\)(\s*mode\s*([0-9]+))?.*
! Touchstone port assignment:
! Touchstone port 1 = CST MWS port 1 ("")
# GHz S MA R 50
0                      0.9893312              -0
0.004                  0.9899695       -9.928222
0.008                  0.9917968       -19.76937
0.012                  0.9945622       -29.44062
0.016                  0.9978912       -38.86693
0.02                     1.00134       -47.98351
0.024                   1.004462       -56.73696
0.028                   1.006864       -65.08544
0.032                   1.008263       -72.99823
0.036                   1.008516       -80.45503
0.04                    1.007638       -87.44542
0.044                   1.005795       -93.96858
0.048                   1.003277       -100.0333
0.052                   1.000459       -105.6579
0.056                   0.997744       -110.8699
0.06                   0.9955082       -115.7052
0.064                  0.9940443       -120.2057
0.068                  0.9935224       -124.4173
0.072                  0.9939671       -128.3856
0.076                   0.995259       -132.1527
0.08                   0.9971596       -135.7546
0.084                  0.9993526        -139.218
0.088                   1.001494       -142.5605
0.092                   1.003267       -145.7905
0.096                   1.004426       -148.9091
0.1                      1.00483       -151.9119
0.104                   1.004457       -154.7921
0.108                   1.003406       -157.5432
0.112                   1.001871       -160.1612
0.116                   1.000117       -162.6465
0.12                   0.9984281       -165.0053
0.124                  0.9970705       -167.2494
0.128                  0.9962462       -169.3954
0.132                  0.9960645       -171.4629
0.136                  0.9965281        -173.472
0.14                   0.9975353       -175.4411
0.144                  0.9989013       -177.3842
0.148                   1.000391       -179.3099
0.152                   1.001759        178.7793
0.156                    1.00279        176.8865
0.16                     1.00333        175.0193
0.164                    1.00331        173.1877
0.168                   1.002753        171.4024
0.172                   1.001768        169.6722
0.176                   1.000531        168.0031
0.18                   0.9992519        166.3962
0.184                  0.9981435        164.8481
0.188                   0.997384        163.3506
0.192                   0.997089        161.8922
0.196                  0.9972939          160.46
0.2                    0.9979494        159.0412
0.204                  0.9989331        157.6256
0.208                   1.000071        156.2067
0.212                   1.001169        154.7827
0.216                   1.002044        153.3561
0.22                    1.002556        151.9335
0.224                   1.002628        150.5238
0.228                   1.002259        149.1368
0.232                   1.001521        147.7814
0.236                   1.000544        146.4641
0.24                   0.9994977        145.1878
0.244                    0.99856        143.9512
0.248                  0.9978867         142.749
0.252                  0.9975867         141.573
0.256                  0.9977027        140.4129
0.26                    0.998207        139.2586
0.264                  0.9990057        138.1014
0.268                  0.9999567        136.9358
0.272                   1.000896        135.7598
0.276                   1.001663        134.5758
0.28                    1.002131         133.389
0.284                   1.002225        132.2076
0.288                   1.001935        131.0403
0.292                   1.001316        129.8954
0.296                   1.000478        128.7791
0.3                    0.9995667        127.6945
0.304                  0.9987395        126.6414
0.308                  0.9981367        125.6154
0.312                   0.997859        124.6097
0.316                    0.99795        123.6154
0.32                   0.9983891        122.6237
0.324                   0.999096        121.6268
0.328                  0.9999458        120.6197
0.332                    1.00079        119.6006
0.336                   1.001484        118.5716
0.34                    1.001909        117.5375
0.344                   1.001996        116.5057
0.348                   1.001733        115.4843
0.352                   1.001168        114.4811
0.356                   1.000402         113.502
0.36                   0.9995683          112.55
0.364                  0.9988118         111.625
0.368                  0.9982632        110.7232
0.372                  0.9980165        109.8382
0.376                  0.9981121        108.9619
0.38                    0.998531        108.0862
0.384                  0.9991978        107.2038
0.388                  0.9999946        106.3101
0.392                   1.000782        105.4037
0.396                   1.001423        104.4864
0.4                     1.001808        103.5631
0.404                   1.001872        102.6408
0.408                   1.001604        101.7273
0.412                   1.001053          100.83
0.416                   1.000317        99.95442
0.42                   0.9995242        99.10354
0.424                  0.9988131        98.27692
0.428                  0.9983081        97.47096
0.432                  0.9980969        96.67937
0.436                  0.9982156         95.8944
0.44                   0.9986422        95.10811
0.444                  0.9993007         94.3138
0.448                   1.000075        93.50716
0.452                   1.000828        92.68702
0.456                   1.001429        91.85545
0.46                    1.001773        91.01747
0.464                     1.0018        90.17999
0.468                   1.001506        89.35077
0.472                   1.000942        88.53691
0.476                   1.000208        87.74376
0.48                   0.9994319        86.97388
0.484                  0.9987505        86.22658
0.488                  0.9982836        85.49805
0.492                  0.9981134        84.78189
0.496                  0.9982697        84.07032
0.5                    0.9987249        83.35561
0.504                  0.9993979        82.63128
0.508                    1.00017         81.8934
0.512                   1.000904        81.14121
0.516                   1.001472        80.37714
0.52                    1.001772        79.60652
0.524                   1.001751        78.83646
0.528                   1.001413        78.07473
0.532                   1.000816        77.32835
0.536                   1.000064        76.60238
0.54                   0.9992892        75.89901
0.544                  0.9986289         75.2171
0.548                     0.9982        74.55237
0.552                  0.9980787        73.89816
0.556                  0.9982872         73.2465
0.56                    0.998789        72.58962
0.564                  0.9994951        71.92133
0.568                   1.000281        71.23805
0.572                   1.001006        70.53952
0.576                   1.001543        69.82876
0.58                    1.001794        69.11152
0.584                   1.001715        68.39534
0.588                   1.001317        67.68808
0.592                    1.00067        66.99675
0.596                  0.9998863        66.32608
0.6                    0.9991038         65.6778
0.604                  0.9984617        65.05017
0.608                   0.998075        64.43834
0.612                  0.9980132        63.83509
0.616                  0.9982888        63.23219
0.62                   0.9988539        62.62178
0.624                  0.9996087        61.99784
0.628                   1.000419        61.35732
0.632                   1.001141        60.70056
0.636                   1.001645        60.03128
0.64                     1.00184        59.35588
0.644                    1.00169        58.68237
0.648                   1.001218         58.0189
0.652                   1.000505        57.37239
0.656                  0.9996781        56.74727
0.66                   0.9988815        56.14467
0.664                   0.998258        55.56212
0.668                  0.9979202        54.99396
0.672                    0.99793        54.43234
0.676                  0.9982879        53.86856
0.68                   0.9989315        53.29469
0.684                  0.9997473        52.70497
0.688                    1.00059        52.09688
0.692                   1.001309        51.47152
0.696                   1.001774        50.83351
0.7                     1.001901        50.19004
0.704                   1.001663        49.54972
0.708                     1.0011        48.92101
0.712                   1.000308        48.31078
0.716                  0.9994269        47.72304
0.72                   0.9986124        47.15818
0.724                  0.9980106        46.61283
0.728                  0.9977314         46.0804
0.732                  0.9978269         45.5522
0.736                  0.9982829        45.01903
0.74                   0.9990196        44.47285
0.744                  0.9999067        43.90821
0.748                   1.000786        43.32327
0.752                   1.001498        42.72011
0.756                   1.001915        42.10433
0.76                    1.001958         41.4841
0.764                   1.001615        40.86874
0.768                   1.000942        40.26705
0.772                   1.000057        39.68582
0.776                  0.9991131        39.12851
0.78                   0.9982798        38.59462
0.784                  0.9977069        38.07968
0.788                  0.9974995        37.57596
0.792                  0.9976982        37.07382
0.796                  0.9982705        36.56349
0.8                    0.9991159        36.03685
0.804                   1.000085        35.48884
0.808                   1.001002        34.91849
0.812                   1.001703          34.329
0.816                   1.002058        33.72722
0.82                    1.001999         33.1224
0.824                   1.001531        32.52469
0.828                   1.000731        31.94323
0.832                  0.9997372        31.38465
0.836                  0.9987255        30.85173
0.84                   0.9978762        30.34288
0.844                  0.9973436        29.85228
0.848                  0.9972268        29.37086
0.852                  0.9975508        28.88793
0.856                  0.9982614        28.39309
0.86                   0.9992337        27.87815
0.864                   1.000295        27.33864
0.868                   1.001253        26.77462
0.872                   1.001934        26.19067
0.876                   1.002211        25.59504
0.88                    1.002029        24.99831
0.884                   1.001412        24.41147
0.888                   1.000464        23.84407
0.892                  0.9993498        23.30242
0.896                  0.9982657        22.78846
0.9                    0.9974068        22.29925
0.904                  0.9969307        21.82737
0.908                   0.996928        21.36221
0.912                  0.9974044        20.89184
0.916                  0.9982793         20.4052
0.92                   0.9993987        19.89414
0.924                   1.000563        19.35495
0.928                   1.001561        18.78894
0.932                   1.002211        18.20234
0.936                   1.002391        17.60511
0.94                    1.002058        17.00927
0.944                   1.001265        16.42682
0.948                   1.000145        15.86762
0.952                  0.9988932        15.33759
0.956                  0.9977319        14.83757
0.96                   0.9968716        14.36296
0.964                  0.9964718        13.90446
0.968                   0.996611        13.44963
0.972                  0.9972717        12.98514
0.976                  0.9983406        12.49926
0.98                   0.9996293        11.98398
0.984                   1.000907        11.43653
0.988                   1.001943        10.85986
0.992                   1.002546        10.26213
0.996                   1.002598        9.655292
1                       1.002081        9.053059
1.004                   1.001075        8.468524
1.008                  0.9997511        7.911861
1.012                  0.9983409        7.388431
1.016                  0.9970957         6.89766
1.02                   0.9962428        6.432948
1.024                  0.9959425        5.982692
1.028                  0.9962581        5.532301
1.032                  0.9971411        5.066869
1.036                  0.9984399        4.573926
1.04                   0.9999249        4.045765
1.044                    1.00133        3.480851
1.048                   1.002398        2.884106
1.052                    1.00293        2.266055
1.056                   1.002819        1.641021
1.06                    1.002071        1.024687
1.064                   1.000805       0.4314016
1.068                  0.9992371      -0.1283742
1.072                  0.9976407      -0.6500554
1.076                  0.9963023       -1.135981
1.08                   0.9954681       -1.595248
1.084                  0.9952981       -2.042261
1.088                  0.9958342       -2.494188
1.092                   0.996991       -2.967801
1.096                  0.9985681       -3.476351
1.1                     1.000286       -4.027094
1.104                   1.001835       -4.619958
1.108                   1.002931       -5.247597
1.112                   1.003366       -5.896547
1.116                   1.003046       -6.549623
1.12                    1.002008       -7.188792
1.124                    1.00042       -7.798181
1.128                  0.9985518       -8.367107
1.132                  0.9967315       -8.891957
1.136                  0.9952868       -9.377333
1.14                   0.9944864       -9.835476
1.144                  0.9944878       -10.28429
1.148                  0.9953062       -10.74413
1.152                  0.9968077       -11.23404
1.156                   0.998732       -11.76816
1.16                    1.000737        -12.3531
1.164                    1.00246       -12.98674
1.168                   1.003582        -13.6586
1.172                   1.003885       -14.35162
1.176                   1.003291       -15.04503
1.18                    1.001881       -15.71781
1.184                  0.9998811       -16.35226
1.188                  0.9976327       -16.93728
1.192                  0.9955303       -17.47063
1.196                  0.9939555        -17.9598
1.2                    0.9932047       -18.42109
1.204                  0.9934328       -18.87693
1.208                  0.9946195        -19.3518
1.212                  0.9965686       -19.86765
1.216                  0.9989412       -20.43973
1.22                    1.001315        -21.0738
1.224                   1.003258       -21.76506
1.228                   1.004406       -22.49903
1.232                   1.004528       -23.25393
1.236                   1.003567       -24.00432
1.24                    1.001657       -24.72524
1.244                  0.9991061       -25.39648
1.248                  0.9963452       -26.00638
1.252                  0.9938606       -26.55435
1.256                  0.9921058       -27.05172
1.26                   0.9914174       -27.52024
1.264                  0.9919471       -27.98849
1.268                  0.9936283       -28.48661
1.272                  0.9961815       -29.04056
1.276                  0.9991615       -29.66721
1.28                    1.002035       -30.37125
1.284                   1.004276       -31.14433
1.288                   1.005456       -31.96659
1.292                   1.005321       -32.80986
1.296                   1.003841       -33.64222
1.3                     1.001221        -34.4331
1.304                   0.997876       -35.15853
1.308                   0.994368       -35.80569
1.312                  0.9913133       -36.37602
1.316                  0.9892727       -36.88609
1.32                   0.9886452       -37.36545
1.324                  0.9895851       -37.85164
1.328                  0.9919634       -38.38328
1.332                   0.995383       -38.99248
1.336                  0.9992451       -39.69885
1.34                    1.002854       -40.50583
1.344                   1.005539       -41.40029
1.348                   1.006769       -42.35477
1.352                   1.006248       -43.33179
1.356                   1.003975       -44.28971
1.36                    1.000249       -45.18917
1.364                  0.9956457        -45.9997
1.368                  0.9909222       -46.70582
1.372                  0.9869028       -47.31124
1.376                  0.9843278       -47.84005
1.38                   0.9837107       -48.33398
1.384                  0.9852264       -48.84528
1.388                  0.9886615       -49.42681
1.392                  0.9934398       -50.12166
1.396                  0.9987176       -50.95492
1.4                      1.00353       -51.92923
1.404                   1.006957       -53.02471
1.408                   1.008279       -54.20237
1.412                   1.007101       -55.41001
1.416                   1.003434       -56.58966
1.42                   0.9977155       -57.68606
1.424                  0.9907648       -58.65577
1.428                  0.9836796       -59.47595
1.432                   0.977664       -60.15156
1.436                  0.9738153       -60.71846
1.44                   0.9729047       -61.24029
1.444                  0.9751985       -61.79803
1.448                   0.980371       -62.47439
1.452                   0.987537       -63.33706
1.456                  0.9953942        -64.4258
1.46                    1.002443       -65.74611
1.464                   1.007232       -67.26964
1.468                   1.008593       -68.93935
1.472                   1.005827        -70.6774
1.476                  0.9988389       -72.39466
1.48                    0.988204       -74.00158
1.484                  0.9751468        -75.4212
1.488                  0.9614303       -76.60457
1.492                  0.9491246       -77.54774
1.496                  0.9402633       -78.30507
1.5                    0.9364208       -78.99251
1.504                  0.9383042        -79.7739
1.508                  0.9454866       -80.83078
1.512                  0.9563702        -82.3262
1.516                  0.9683901        -84.3763
1.52                   0.9783726       -87.03859
1.524                  0.9829342       -90.31593
1.528                  0.9788337       -94.16926
1.532                  0.9632382       -98.53101
1.536                  0.9339065       -103.3154
1.54                   0.8892981       -108.4226
1.544                   0.828635       -113.7367
1.548                  0.7519268       -119.1135
1.552                  0.6599807       -124.3504
1.556                  0.5544294       -129.1135
1.56                   0.4378728        -132.734
1.564                  0.3145337       -133.5203
1.568                  0.1938446       -125.6627
1.572                  0.1161397       -86.87496
1.576                  0.1703731       -38.92616
1.58                   0.2877341        -27.1512
1.584                  0.4120412       -26.87579
1.588                  0.5310076       -30.15305
1.592                  0.6397403        -34.8308
1.596                  0.7353008       -40.10748
1.6                    0.8157824       -45.60031
1.604                  0.8801182       -51.08542
1.608                  0.9280484       -56.40729
1.612                  0.9601194       -61.44206
1.616                  0.9776744       -66.08233
1.62                   0.9828143       -70.23277
1.624                  0.9783111       -73.81325
1.628                  0.9674554       -76.76848
1.632                  0.9538101       -79.08311
1.636                  0.9408619        -80.7981
1.64                   0.9315902       -82.02075
1.644                  0.9280334       -82.91851
1.648                   0.930984        -83.6919
1.652                  0.9399349       -84.53323
1.656                  0.9533084       -85.58788
1.66                   0.9688852        -86.9331
1.664                  0.9842837       -88.57758
1.668                  0.9973734       -90.47543
1.672                   1.006562       -92.54495
1.676                   1.010956       -94.68629
1.68                    1.010411       -96.79577
1.684                   1.005497       -98.77771
1.688                  0.9973884       -100.5549
1.692                  0.9876857       -102.0784
1.696                  0.9781772       -103.3361
1.7                    0.9705585       -104.3573
1.704                  0.9661497       -105.2102
1.708                  0.9656654       -105.9905
1.712                  0.9691012       -106.8024
1.716                  0.9757656       -107.7372
1.72                   0.9844501       -108.8562
1.724                  0.9936799       -110.1832
1.728                   1.001984       -111.7047
1.732                   1.008132       -113.3775
1.736                   1.011295       -115.1386
1.74                     1.01115       -116.9156
1.744                   1.007892       -118.6367
1.748                   1.002193       -120.2402
1.752                  0.9950884       -121.6825
1.756                  0.9878233       -122.9455
1.76                   0.9816462       -124.0404
1.764                  0.9776043       -125.0076
1.768                  0.9763593       -125.9098
1.772                  0.9780733       -126.8208
1.776                  0.9823925       -127.8102
1.78                   0.9885297       -128.9309
1.784                  0.9954239       -130.2102
1.788                   1.001937       -131.6475
1.792                   1.007042       -133.2169
1.796                   1.009981       -134.8741
1.8                     1.010362       -136.5633
1.804                   1.008207       -138.2264
1.808                   1.003936       -139.8103
1.812                  0.9983009       -141.2747
1.816                  0.9922636       -142.5983
1.82                   0.9868465       -143.7831
1.824                  0.9829615       -144.8548
1.828                  0.9812524       -145.8593
1.832                  0.9819821       -146.8545
1.836                  0.9849898       -147.8991
1.84                   0.9897304       -149.0415
1.844                  0.9953816       -150.3116
1.848                   1.000997       -151.7165
1.852                   1.005668       -153.2412
1.856                   1.008665       -154.8528
1.86                    1.009546       -156.5062
1.864                   1.008213       -158.1512
1.868                   1.004922       -159.7398
1.872                   1.000236       -161.2329
1.876                   0.994945       -162.6063
1.88                   0.9899353       -163.8551
1.884                  0.9860467       -164.9953
1.888                  0.9839286       -166.0619
1.892                  0.9839259        -167.103
1.896                  0.9860176       -168.1706
1.9                    0.9898267       -169.3113
1.904                   0.994693       -170.5573
1.908                  0.9997956       -171.9221
1.912                   1.004294       -173.3986
1.916                   1.007468       -174.9621
1.92                    1.008822       -176.5751
1.924                   1.008161       -178.1926
1.928                   1.005613       -179.7696
1.932                   1.001607        178.7331
1.936                  0.9968082        177.3427
1.94                   0.9920158        176.0696
1.944                  0.9880309        174.9052
1.948                  0.9855228        173.8227
1.952                  0.9849108        172.7807
1.956                  0.9862888        171.7313
1.96                   0.9894102        170.6286
1.964                   0.993735        169.4375
1.968                  0.9985298        168.1394
1.972                   1.002996        166.7345
1.976                   1.006405        165.2409
1.98                    1.008207        163.6908
1.984                   1.008119        162.1253
1.988                   1.006166        160.5878
1.992                   1.002667        159.1184
1.996                  0.9981984        157.7473
2                       0.993499        156.4898
2.004                  0.9893538        155.3437
2.008                  0.9864624        154.2881
2.012                  0.9853162        153.2867
2.016                  0.9861095        152.2941
2.02                   0.9887028        151.2641
2.024                    0.99265        150.1584
2.028                  0.9972792        148.9534
2.032                   1.001813        147.6434
2.036                   1.005499        146.2412
2.04                    1.007732        144.7746
2.044                   1.008146        143.2823
2.048                   1.006671        141.8073
2.052                   1.003541         140.391
2.056                  0.9992643         139.067
2.06                   0.9945429        137.8555
2.064                  0.9901644        136.7594
2.068                  0.9868708        135.7629
2.072                  0.9852292        134.8333
2.076                  0.9855269        133.9262
2.08                   0.9877179        132.9941
2.084                  0.9914287        131.9951
2.088                  0.9960273        130.9002
2.092                   1.000735        129.6985
2.096                   1.004762        128.3982
2.1                     1.007435        127.0238
2.104                   1.008303        125.6128
2.108                   1.007209        124.2089
2.112                   1.004315         122.856
2.116                   1.000079        121.5916
2.12                   0.9951905        120.4409
2.124                  0.9904611         119.412
2.128                  0.9866949         118.493
2.132                  0.9845463        117.6536
2.136                  0.9844006        116.8494
2.14                   0.9862972        116.0297
2.144                  0.9899203        115.1477
2.148                  0.9946543        114.1686
2.152                  0.9996938        113.0762
2.156                   1.004184        111.8741
2.16                    1.007362        110.5851
2.164                    1.00868        109.2466
2.168                   1.007891        107.9044
2.172                   1.005088        106.6067
2.176                   1.000699        105.3962
2.18                    0.995424        104.3043
2.184                   0.990133        103.3442
2.188                  0.9857249        102.5083
2.192                  0.9829724        101.7673
2.196                  0.9823779        101.0747
2.2                    0.9840742        100.3745
2.204                  0.9877917         99.6125
2.208                  0.9929046        98.74619
2.212                  0.9985416        97.75245
2.216                   1.003738         96.6309
2.22                      1.0076        95.40303
2.224                   1.009443        94.10791
2.228                   1.008909        92.79619
2.232                   1.006017         91.5226
2.236                   1.001177        90.33833
2.24                   0.9951344        89.28303
2.244                  0.9888686        88.37763
2.248                  0.9834379        87.61899
2.252                     0.9798        86.97811
2.256                  0.9786328        86.40334
2.26                   0.9801955         85.8291
2.264                  0.9842665        85.18849
2.268                  0.9901742        84.42631
2.272                  0.9969148        83.50934
2.276                   1.003327        82.43151
2.28                    1.008288        81.21366
2.284                   1.010894        79.89923
2.288                   1.010602        78.54746
2.292                   1.007322        77.22519
2.296                   1.001446        75.99797
2.3                    0.9938142        74.92044
2.304                   0.985611        74.02676
2.308                   0.978193        73.32209
2.312                  0.9728663        72.77749
2.316                  0.9706418        72.33121
2.32                   0.9720222        71.89786
2.324                  0.9768748        71.38467
2.328                   0.984432         70.7102
2.332                  0.9934171        69.82031
2.336                   1.002264        68.69683
2.34                    1.009375        67.35871
2.344                   1.013373        65.85717
2.348                   1.013308        64.26777
2.352                   1.008812        62.68104