! TOUCHSTONE file generated by CST MICROWAVE STUDIO
! Date and time: Tue Jun  7 21:11:36 2022
! Project name: AppElm_antenne_patch_FR4.cst
! Parameters = {L=45; W=58.5; e=0.035; h=1.6; lambda=0.190476; ls=120; w0=1.6; w1=0.533333; ws=132; y0=20; y1=23.81}
! Header version: 2018
! Port assignment regex: !\s*Touchstone port\s*([0-9]+)\s*=\s*(CST MWS port|CST DS port)\s*([0-9]+|Zmin|Zmax)\s*\(\"(.*)\"\)(\s*mode\s*([0-9]+))?.*
! Touchstone port assignment:
! Touchstone port 1 = CST MWS port 1 ("")
# GHz S MA R 50
0                      0.9894024              -0
0.004                  0.9900388       -9.932178
0.008                  0.9918604       -19.77713
0.012                  0.9946163        -29.4519
0.016                  0.9979317       -38.88132
0.02                    1.001364       -48.00047
0.024                   1.004465       -56.75591
0.028                   1.006845       -65.10573
0.032                   1.008221       -73.01916
0.036                   1.008453       -80.47595
0.04                    1.007557       -87.46566
0.044                   1.005702       -93.98765
0.048                   1.003181       -100.0508
0.052                   1.000368       -105.6736
0.056                  0.9976685       -110.8839
0.06                   0.9954565       -115.7177
0.064                  0.9940229       -120.2172
0.068                  0.9935343       -124.4283
0.072                  0.9940109       -128.3967
0.076                  0.9953298       -132.1647
0.08                   0.9972483       -135.7678
0.084                  0.9994473       -139.2327
0.088                   1.001582       -142.5767
0.092                   1.003336        -145.808
0.096                   1.004466       -148.9272
0.1                     1.004835       -151.9301
0.104                   1.004426       -154.8097
0.108                   1.003342       -157.5593
0.112                   1.001785       -160.1752
0.116                   1.000019        -162.658
0.12                   0.9983341       -165.0142
0.124                  0.9969945       -167.2559
0.128                  0.9962006          -169.4
0.132                  0.9960572       -171.4665
0.136                  0.9965614       -173.4754
0.14                   0.9976052       -175.4452
0.144                  0.9989981       -177.3898
0.148                   1.000501       -179.3175
0.152                   1.001866        178.7696
0.156                   1.002878         176.875
0.16                    1.003385        175.0065
0.164                   1.003324        173.1744
0.168                   1.002723        171.3895
0.172                   1.001699        169.6608
0.176                   1.000432        167.9939
0.18                   0.9991399        166.3897
0.184                  0.9980357        164.8445
0.188                  0.9972979        163.3495
0.192                  0.9970389        161.8931
0.196                  0.9972885        160.4617
0.2                    0.9979906        159.0428
0.204                  0.9990149        157.6261
0.208                   1.000181        156.2053
0.212                   1.001289        154.7788
0.216                   1.002156        153.3497
0.22                    1.002641        151.9249
0.224                   1.002673        150.5138
0.228                   1.002255        149.1265
0.232                   1.001467        147.7719
0.236                   1.000449        146.4565
0.24                   0.9993762        145.1828
0.244                  0.9984312        143.9493
0.248                  0.9977717        142.7502
0.252                  0.9975043        141.5767
0.256                  0.9976672        140.4183
0.26                   0.9982248        139.2644
0.264                  0.9990744        138.1064
0.268                   1.000066        136.9388
0.272                   1.001027        135.7601
0.276                   1.001795         134.573
0.28                    1.002242        133.3835
0.284                   1.002296           132.2
0.288                   1.001953        131.0317
0.292                   1.001277         129.887
0.296                   1.000387        128.7723
0.3                    0.9994381        127.6905
0.304                  0.9985935        126.6407
0.308                  0.9979978        125.6182
0.312                  0.9977503        124.6156
0.316                    0.99789        123.6235
0.32                   0.9983887        122.6327
0.324                  0.9991562        121.6352
0.328                   1.000057        120.6262
0.332                   1.000934        119.6042
0.336                   1.001637        118.5717
0.34                    1.002045        117.5342
0.344                   1.002091        116.4997
0.348                   1.001771        115.4767
0.352                   1.001141        114.4734
0.356                   1.000314        113.4957
0.36                   0.9994323        112.5465
0.364                  0.9986506        111.6251
0.368                   0.998104        110.7273
0.372                  0.9978865        109.8459
0.376                  0.9980344        108.9724
0.38                   0.9985198        108.0979
0.384                  0.9992563        107.2151
0.388                   1.000114        106.3195
0.392                   1.000943        105.4098
0.396                     1.0016        104.4886
0.4                      1.00197        103.5613
0.404                   1.001991        102.6357
0.408                   1.001661        101.7201
0.412                   1.001037        100.8224
0.416                    1.00023        99.94816
0.42                   0.9993799        99.10018
0.424                  0.9986366        98.27757
0.428                    0.99813        97.47604
0.432                  0.9979488        96.68863
0.436                  0.9981243        95.90679
0.44                   0.9986252        95.12207
0.444                  0.9993629        94.32746
0.448                   1.000207        93.51869
0.452                    1.00101        92.69494
0.456                   1.001631        91.85892
0.46                     1.00196        91.01638
0.464                   1.001941        90.17505
0.468                   1.001576        89.34334
0.472                   1.000929        88.52885
0.476                   1.000113        87.73707
0.48                   0.9992716        86.97038
0.484                  0.9985521        86.22757
0.488                  0.9980817        85.50406
0.492                   0.997944        84.79263
0.496                  0.9981638        84.08465
0.5                    0.9987025        83.37172
0.504                  0.9994649        82.64707
0.508                   1.000316        81.90679
0.512                   1.001107        81.15051
0.516                   1.001696        80.38142
0.52                    1.001979        79.60564
0.524                   1.001906        78.83124
0.528                   1.001488        78.06672
0.532                   1.000796        77.31969
0.536                   0.999952        76.59531
0.54                   0.9991038        75.89557
0.544                  0.9984015        75.21878
0.548                  0.9979701        74.55977
0.552                  0.9978872        73.91086
0.556                  0.9981687        73.26319
0.56                   0.9987657        72.60825
0.564                   0.999573        71.93947
0.568                   1.000448        71.25339
0.572                   1.001234        70.55019
0.576                   1.001793        69.83372
0.58                    1.002024         69.1107
0.584                   1.001883        68.38968
0.588                   1.001394        67.67945
0.592                   1.000641        66.98753
0.596                   0.999754        66.31886
0.6                    0.9988913        65.67485
0.604                  0.9982058        65.05308
0.608                  0.9978206        64.44771
0.612                  0.9978064        63.85037
0.616                  0.9981679        63.25174
0.62                   0.9988424        62.64325
0.624                  0.9997112        62.01851
0.628                    1.00062        61.37458
0.632                   1.001408        60.71237
0.636                   1.001932        60.03655
0.64                    1.002099        59.35471
0.644                   1.001875        58.67592
0.648                   1.001298        58.00935
0.652                   1.000466         57.3625
0.656                  0.9995249        56.73994
0.66                   0.9986426        56.14239
0.664                  0.9979765        55.56656
0.668                  0.9976477        55.00563
0.672                  0.9977176        54.45046
0.676                   0.998177        53.89118
0.68                   0.9989461        53.31906
0.684                  0.9998895        52.72797
0.688                   1.000839        52.11564
0.692                   1.001625         51.4839
0.696                   1.002107        50.83843
0.7                     1.002194        50.18778
0.704                   1.001867         49.5418
0.708                   1.001181        48.91001
0.712                   1.000254        48.29988
0.716                  0.9992491        47.71546
0.72                   0.9983445        47.15665
0.724                  0.9977035        46.61904
0.728                   0.997444        46.09468
0.732                   0.997616        45.57345
0.736                  0.9981922        45.04488
0.74                   0.9990725        44.50008
0.744                   1.000101        43.93331
0.748                   1.001095         43.3431
0.752                   1.001874        42.73241
0.756                   1.002298        42.10818
0.76                    1.002286        41.48006
0.764                   1.001835        40.85876
0.768                    1.00102        40.25419
0.772                  0.9999822        39.67372
0.776                  0.9989045        39.12076
0.78                   0.9979791        38.59413
0.784                  0.9973741        38.08809
0.788                  0.9972017        37.59334
0.792                  0.9974975        37.09864
0.796                  0.9982127        36.59286
0.8                     0.999222        36.06699
0.804                   1.000347        35.51584
0.808                   1.001385        34.93895
0.812                   1.002149        34.34064
0.816                   1.002499         33.7293
0.82                    1.002365        33.11589
0.824                   1.001766        32.51206
0.828                   1.000801        31.92814
0.832                   0.999638        31.37123
0.836                  0.9984828        30.84394
0.84                   0.9975427        30.34374
0.844                  0.9969896        29.86333
0.848                   0.996928        29.39181
0.852                  0.9973746        28.91668
0.856                  0.9982545         28.4261
0.86                   0.9994132        27.91106
0.864                   1.000645        27.36708
0.868                   1.001727        26.79496
0.872                   1.002465        26.20066
0.876                   1.002719        25.59428
0.88                    1.002437        24.98825
0.884                   1.001662        24.39527
0.888                   1.000524          23.826
0.892                  0.9992213        23.28721
0.896                  0.9979855        22.78042
0.9                    0.9970401         22.3015
0.904                  0.9965598        21.84121
0.908                  0.9966377        21.38685
0.912                   0.997267        20.92449
0.916                  0.9983409        20.44156
0.92                   0.9996705         19.9292
0.924                   1.001019        19.38385
0.928                   1.002143        18.80788
0.932                   1.002836        18.20923
0.936                   1.002968        17.59994
0.94                    1.002505        16.99417
0.944                   1.001521         16.4057
0.948                   1.000181        15.84554
0.952                  0.9987218        15.31989
0.956                  0.9974021        14.82893
0.96                   0.9964629        14.36652
0.964                    0.99608        13.92116
0.968                  0.9963311        13.47803
0.972                  0.9971802        13.02161
0.976                  0.9984814        12.53863
0.98                    1.000005         12.0205
0.984                    1.00148        11.46487
0.988                   1.002637        10.87608
0.992                   1.003265        10.26438
0.996                   1.003239        9.644156
1                       1.002553        9.031468
1.004                   1.001317        8.441313
1.008                  0.9997413         7.88497
1.012                  0.9981024        7.367886
1.016                  0.9966941        6.888487
1.02                   0.9957748        6.438208
1.024                  0.9955195         6.00285
1.028                  0.9959853        5.565078
1.032                   0.997099        5.107615
1.036                  0.9986684         4.61646
1.04                    1.000416        4.083497
1.044                   1.002027        3.507976
1.048                    1.00321        2.896627
1.052                   1.003742        2.262491
1.056                   1.003515        1.622685
1.06                    1.002553       0.9955088
1.064                   1.001011        0.397313
1.068                  0.9991545      -0.1604161
1.072                  0.9973083      -0.6732712
1.076                  0.9958053       -1.145012
1.08                   0.9949239       -1.587202
1.084                  0.9948354       -2.017337
1.088                    0.99557       -2.455718
1.092                  0.9970082       -2.921679
1.096                  0.9989005       -3.429952
1.1                     1.000911       -3.987933
1.104                   1.002678       -4.594358
1.108                   1.003876       -5.239511
1.112                   1.004279       -5.906956
1.116                   1.003794       -6.576288
1.12                    1.002487       -7.226604
1.124                   1.000571       -7.839872
1.128                  0.9983737       -8.404491
1.132                  0.9962819       -8.917426
1.136                  0.9946749       -9.385195
1.14                   0.9938542       -9.823128
1.144                  0.9939849       -10.25281
1.148                  0.9950621       -10.69819
1.152                  0.9969076       -11.18105
1.156                  0.9992004       -11.71692
1.16                    1.001533        -12.3122
1.164                   1.003483       -12.96303
1.168                   1.004691       -13.65599
1.172                    1.00492       -14.37041
1.176                   1.004104       -15.08178
1.18                    1.002357       -15.76587
1.184                   0.999966       -16.40278
1.188                  0.9973392       -16.98066
1.192                  0.9949413       -17.49823
1.196                  0.9932104       -17.96557
1.2                    0.9924762       -18.40285
1.204                  0.9928955       -18.83691
1.208                  0.9944175       -19.29636
1.212                  0.9967886       -19.80611
1.216                  0.9995956       -20.38266
1.22                    1.002339       -21.03109
1.224                    1.00452       -21.74416
1.228                   1.005731       -22.50371
1.232                   1.005725       -23.28362
1.236                   1.004466       -24.05409
1.24                    1.002135       -24.78653
1.244                  0.9991117        -25.4584
1.248                  0.9959113       -26.05748
1.252                  0.9931016       -26.58468
1.256                  0.9912004       -27.05477
1.26                   0.9905772       -27.49438
1.264                  0.9913793       -27.93748
1.268                  0.9934962       -28.41903
1.272                  0.9965735       -28.96823
1.276                   1.000074       -29.60299
1.28                    1.003373       -30.32668
1.284                   1.005866       -31.12769
1.288                   1.007078       -31.98147
1.292                   1.006746       -32.85456
1.296                   1.004868        -33.7099
1.3                     1.001713        -34.5127
1.304                  0.9977864        -35.2364
1.308                  0.9937554       -35.86782
1.312                  0.9903341        -36.4106
1.316                  0.9881587       -36.88584
1.32                   0.9876631       -37.32943
1.324                  0.9889882       -37.78569
1.328                   0.991943       -38.29904
1.332                  0.9960321       -38.90526
1.336                    1.00054       -39.62472
1.34                    1.004657       -40.45875
1.344                   1.007621       -41.38979
1.348                   1.008848       -42.38434
1.352                   1.008038       -43.39835
1.356                   1.005226       -44.38385
1.36                    1.000803       -45.29632
1.364                  0.9954584       -46.10221
1.368                  0.9900847       -46.78574
1.372                  0.9856316        -47.3536
1.376                  0.9829339       -47.83614
1.38                   0.9825463       -48.28354
1.384                    0.98462       -48.75708
1.388                  0.9888543        -49.3172
1.392                  0.9945386       -50.01141
1.396                   1.000674       -50.86526
1.4                     1.006147       -51.87815
1.404                   1.009921       -53.02405
1.408                   1.011211       -54.25607
1.412                   1.009618       -55.51338
1.416                   1.005208       -56.72976
1.42                   0.9985327       -57.84305
1.424                  0.9905736       -58.80528
1.428                  0.9826121       -59.59286
1.432                  0.9760307        -60.2146
1.436                   0.972065       -60.71513
1.44                    0.971549       -61.17052
1.444                  0.9747171        -61.6753
1.448                  0.9811183       -62.32344
1.452                  0.9896712       -63.18899
1.456                  0.9988475       -64.31213
1.46                    1.006932       -65.69344
1.464                   1.012303       -67.29576
1.468                   1.013688       -69.05106
1.472                   1.010369       -70.86964
1.476                   1.002317       -72.65042
1.48                    0.990258        -74.2927
1.484                  0.9756473       -75.71058
1.488                   0.960539       -76.85057
1.492                  0.9473179       -77.71139
1.496                  0.9382982       -78.35982
1.5                    0.9352309       -78.93372
1.504                  0.9388376       -79.62398
1.508                  0.9485243       -80.63681
1.512                  0.9623818       -82.15079
1.516                  0.9774623       -84.28599
1.52                   0.9902134       -87.09492
1.524                  0.9969301       -90.57116
1.528                  0.9941314       -94.66632
1.532                  0.9788308       -99.30632
1.536                   0.948709       -104.4031
1.54                   0.9022128       -109.8597
1.544                  0.8386004       -115.5696
1.548                  0.7579504       -121.4069
1.552                  0.6611484       -127.2025
1.556                  0.5498733       -132.6823
1.56                   0.4266458       -137.2887
1.564                   0.295225       -139.5065
1.568                  0.1635112       -132.9891
1.572                 0.08129152       -77.62997
1.576                  0.1696438       -26.06666
1.58                    0.301925       -20.38856
1.584                  0.4333684       -22.83784
1.588                  0.5564563       -27.57152
1.592                  0.6674663       -33.15723
1.596                  0.7638645       -39.05901
1.6                    0.8439472       -45.00999
1.604                  0.9068024       -50.84314
1.608                  0.9523297        -56.4325
1.612                  0.9812607       -61.66965
1.616                   0.995156       -66.45457
1.62                   0.9963694       -70.69441
1.624                  0.9879571       -74.30924
1.628                  0.9735116       -77.24439
1.632                  0.9568908       -79.48855
1.636                  0.9418277       -81.09337
1.64                   0.9314448       -82.18478
1.644                  0.9277742       -82.95454
1.648                  0.9314382       -83.62677
1.652                  0.9416342       -84.40951
1.656                  0.9564378       -85.45236
1.66                   0.9733108       -86.82636
1.664                  0.9896343       -88.52806
1.668                   1.003142       -90.49767
1.672                   1.012206       -92.64065
1.676                   1.015979       -94.84652
1.68                    1.014426       -97.00342
1.684                   1.008274       -99.01004
1.688                  0.9988787       -100.7863
1.692                  0.9880242       -102.2837
1.696                  0.9776606       -103.4943
1.7                    0.9695954       -104.4556
1.704                  0.9651884       -105.2465
1.708                  0.9651126       -105.9742
1.712                  0.9692497       -106.7517
1.716                  0.9767502       -107.6748
1.72                   0.9862382       -108.8044
1.724                  0.9960968       -110.1596
1.728                   1.004759       -111.7202
1.732                   1.010949       -113.4356
1.736                   1.013851       -115.2358
1.74                    1.013196       -117.0427
1.744                   1.009268       -118.7806
1.748                   1.002847       -120.3854
1.752                  0.9950834       -121.8138
1.756                  0.9873215       -123.0499
1.76                   0.9808829       -124.1099
1.764                  0.9768446       -125.0403
1.768                  0.9758496       -125.9106
1.772                  0.9779971       -126.7999
1.776                  0.9828406       -127.7812
1.78                    0.989491       -128.9075
1.784                  0.9967966       -130.2037
1.788                   1.003553       -131.6653
1.792                   1.008704       -133.2617
1.796                   1.011493       -134.9437
1.8                     1.011564       -136.6521
1.804                   1.008995       -138.3258
1.808                   1.004277       -139.9104
1.812                  0.9982349       -141.3659
1.816                  0.9918952       -142.6725
1.82                   0.9863252       -143.8353
1.824                  0.9824549       -144.8841
1.828                  0.9809141       -145.8689
1.832                  0.9819249        -146.851
1.836                  0.9852669        -147.891
1.84                   0.9903292       -149.0376
1.844                  0.9962319       -150.3189
1.848                   1.001988       -151.7394
1.852                   1.006671       -153.2811
1.856                   1.009557       -154.9078
1.86                    1.010231       -156.5722
1.864                   1.008634       -158.2224
1.868                    1.00507       -159.8098
1.872                   1.000149       -161.2958
1.876                  0.9946996       -162.6576
1.88                   0.9896307       -163.8925
1.884                  0.9857868       -165.0192
1.888                  0.9838014       -166.0752
1.892                  0.9839871       -167.1104
1.896                   0.986282       -168.1777
1.9                     0.990267       -169.3232
1.904                  0.9952486       -170.5778
1.908                   1.000387       -171.9526
1.912                    1.00484       -173.4388
1.916                   1.007899       -175.0096
1.92                    1.009096       -176.6262
1.924                   1.008268       -178.2432
1.928                   1.005574       -179.8158
1.932                   1.001473        178.6943
1.936                   0.996645        177.3127
1.94                   0.9918931        176.0479
1.944                  0.9880067        174.8899
1.948                  0.9856313          173.81
1.952                  0.9851545        172.7667
1.956                  0.9866384        171.7123
1.96                   0.9898109        170.6023
1.964                  0.9941193        169.4033
1.968                  0.9988323        168.0985
1.972                   1.003168        166.6898
1.976                   1.006423        165.1961
1.98                     1.00808        163.6498
1.984                   1.007888        162.0914
1.988                   1.005892        160.5632
1.992                   1.002426        159.1034
1.996                   0.998063        157.7402
2                      0.9935223        156.4874
2.004                  0.9895586        155.3413
2.008                  0.9868328        154.2808
2.012                  0.9857984        153.2701
2.016                  0.9866207        152.2658
2.02                   0.9891469         151.224
2.024                  0.9929369         150.109
2.028                  0.9973442        148.8993
2.032                    1.00163        147.5905
2.036                   1.005088        146.1954
2.04                    1.007157        144.7411
2.044                   1.007505        143.2641
2.048                   1.006082        141.8051
2.052                   1.003119        140.4025
2.056                  0.9991012        139.0874
2.06                   0.9946871        137.8779
2.064                   0.990608        136.7758
2.068                  0.9875462        135.7658
2.072                  0.9860166        134.8174
2.076                  0.9862751        133.8897
2.08                   0.9882713        132.9392
2.084                  0.9916585        131.9278
2.088                   0.995857        130.8292
2.092                   1.000157        129.6339
2.096                   1.003842         128.349
2.1                     1.006301        126.9972
2.104                    1.00713        125.6122
2.108                   1.006188        124.2336
2.112                   1.003619        122.9009
2.116                  0.9998342        121.6479
2.12                   0.9954481        120.4969
2.124                  0.9911822         119.455
2.128                  0.9877495        118.5121
2.132                  0.9857307        117.6416
2.136                  0.9854704        116.8046
2.14                   0.9870134        115.9571
2.144                  0.9900945        115.0578
2.148                  0.9941869        114.0759
2.152                  0.9985956        112.9961
2.156                   1.002577        111.8206
2.16                    1.005464        110.5683
2.164                   1.006767        109.2706
2.168                   1.006255         107.967
2.172                    1.00399        106.6991
2.176                   1.000317         105.504
2.18                    0.995819        104.4091
2.184                  0.9912264        103.4271
2.188                  0.9873009        102.5528
2.192                  0.9847072        101.7633
2.196                  0.9838937        101.0207
2.2                    0.9850077        100.2792
2.204                  0.9878653        99.49297
2.208                  0.9919823        98.62513
2.212                  0.9966593        97.65382
2.216                   1.001102        96.57574
2.22                    1.004556        95.40576
2.224                   1.006422        94.17408
2.228                   1.006359        92.92124
2.232                   1.004327         91.6921
2.236                   1.000607        90.52952
2.24                   0.9957623        89.46771
2.244                  0.9905552        88.52658
2.248                  0.9858347        87.70729
2.252                  0.9823941        86.99064
2.256                  0.9808313        86.33902
2.26                   0.9814347        85.70246
2.264                  0.9841229        85.02759
2.268                  0.9884526        84.26762
2.272                  0.9936928        83.39092
2.276                  0.9989505        82.38609
2.28                    1.003318        81.26314
2.284                   1.006021        80.05114
2.288                   1.006534        78.79354
2.292                   1.004672        77.54178
2.296                   1.000619        76.34834
2.3                      0.99492         75.2593
2.304                  0.9884114        74.30678
2.308                   0.982106        73.50261
2.312                  0.9770354        72.83379
2.316                  0.9740721        72.26216
2.32                   0.9737633        71.72921
2.324                  0.9762135        71.16588
2.328                   0.981046        70.50551
2.332                  0.9874548        69.69636
2.336                   0.994336         68.7106
2.34                    1.000466        67.54815
2.344                   1.004691        66.23569
2.348                   1.006107          64.822
2.352                   1.004192        63.37143