! TOUCHSTONE file generated by CST MICROWAVE STUDIO
! Date and time: Thu May 12 15:28:07 2022
! Project name: AppElm_antenne_dipole_FR4.cst
! Parameters = {L=38.8; e=0.035; f=2.45e+09; h=1.6; i=0.8; l1=3; lambda=122.449; ls=30; wl=1.7; ws=80}
! Header version: 2018
! Port assignment regex: !\s*Touchstone port\s*([0-9]+)\s*=\s*(CST MWS port|CST DS port)\s*([0-9]+|Zmin|Zmax)\s*\(\"(.*)\"\)(\s*mode\s*([0-9]+))?.*
! Touchstone port assignment:
! Touchstone port 1 = CST MWS port 1 ("")
# GHz S MA R 50
0                      0.9988436              -0
0.004                  0.9988444     -0.04855216
0.008                  0.9988471     -0.09711043
0.012                  0.9988514      -0.1456809
0.016                  0.9988575      -0.1942696
0.02                   0.9988653      -0.2428825
0.024                  0.9988749      -0.2915256
0.028                  0.9988862      -0.3402047
0.032                  0.9988989      -0.3889256
0.036                  0.9989134      -0.4376939
0.04                   0.9989292      -0.4865151
0.044                  0.9989466      -0.5353947
0.048                  0.9989657      -0.5843376
0.052                  0.9989859      -0.6333493
0.056                  0.9990076      -0.6824342
0.06                   0.9990303      -0.7315973
0.064                  0.9990544      -0.7808428
0.068                  0.9990797       -0.830175
0.072                  0.9991059      -0.8795979
0.076                  0.9991331      -0.9291152
0.08                   0.9991612      -0.9787305
0.084                  0.9991901       -1.028447
0.088                  0.9992197       -1.078268
0.092                  0.9992498       -1.128195
0.096                  0.9992807       -1.178231
0.1                    0.9993118       -1.228379
0.104                  0.9993433        -1.27864
0.108                  0.9993751       -1.329016
0.112                   0.999407       -1.379507
0.116                  0.9994389       -1.430116
0.12                   0.9994709       -1.480841
0.124                  0.9995026       -1.531685
0.128                  0.9995341       -1.582645
0.132                  0.9995653       -1.633724
0.136                  0.9995961       -1.684919
0.14                   0.9996264        -1.73623
0.144                   0.999656       -1.787655
0.148                  0.9996848       -1.839195
0.152                   0.999713       -1.890845
0.156                  0.9997403       -1.942604
0.16                   0.9997664       -1.994472
0.164                  0.9997917       -2.046443
0.168                  0.9998157       -2.098517
0.172                  0.9998387       -2.150689
0.176                  0.9998602       -2.202956
0.18                   0.9998805       -2.255315
0.184                  0.9998993       -2.307763
0.188                  0.9999166       -2.360295
0.192                  0.9999326       -2.412908
0.196                  0.9999468       -2.465597
0.2                    0.9999596       -2.518357
0.204                  0.9999705       -2.571184
0.208                  0.9999798       -2.624075
0.212                  0.9999874       -2.677023
0.216                  0.9999933       -2.730023
0.22                   0.9999973       -2.783072
0.224                  0.9999995       -2.836164
0.228                          1       -2.889294
0.232                  0.9999986       -2.942457
0.236                  0.9999955       -2.995648
0.24                   0.9999905       -3.048862
0.244                  0.9999837       -3.102094
0.248                  0.9999753       -3.155338
0.252                   0.999965        -3.20859
0.256                   0.999953       -3.261846
0.26                   0.9999393       -3.315099
0.264                  0.9999239       -3.368347
0.268                   0.999907       -3.421583
0.272                  0.9998884       -3.474804
0.276                  0.9998684       -3.528006
0.28                   0.9998468       -3.581184
0.284                   0.999824       -3.634334
0.288                  0.9997996       -3.687453
0.292                  0.9997742       -3.740537
0.296                  0.9997474       -3.793584
0.3                    0.9997198        -3.84659
0.304                  0.9996908       -3.899551
0.308                   0.999661       -3.952466
0.312                  0.9996304       -4.005332
0.316                  0.9995989       -4.058148
0.32                   0.9995668       -4.110911
0.324                   0.999534       -4.163621
0.328                  0.9995009       -4.216274
0.332                  0.9994672       -4.268874
0.336                  0.9994333       -4.321417
0.34                   0.9993992       -4.373903
0.344                   0.999365       -4.426332
0.348                  0.9993308       -4.478706
0.352                  0.9992967       -4.531024
0.356                  0.9992628       -4.583289
0.36                   0.9992292       -4.635501
0.364                   0.999196       -4.687661
0.368                  0.9991633       -4.739773
0.372                  0.9991312       -4.791839
0.376                  0.9990998        -4.84386
0.38                   0.9990693       -4.895841
0.384                  0.9990395       -4.947784
0.388                  0.9990108       -4.999693
0.392                  0.9989831       -5.051572
0.396                  0.9989565       -5.103424
0.4                    0.9989312       -5.155255
0.404                  0.9989073       -5.207069
0.408                  0.9988845        -5.25887
0.412                  0.9988633       -5.310665
0.416                  0.9988436       -5.362459
0.42                   0.9988254       -5.414256
0.424                   0.998809       -5.466062
0.428                  0.9987941       -5.517884
0.432                  0.9987809       -5.569728
0.436                  0.9987696       -5.621601
0.44                   0.9987599       -5.673507
0.444                  0.9987522       -5.725455
0.448                  0.9987463       -5.777449
0.452                  0.9987422       -5.829498
0.456                    0.99874       -5.881608
0.46                   0.9987397       -5.933786
0.464                  0.9987412       -5.986038
0.468                  0.9987447       -6.038372
0.472                    0.99875       -6.090794
0.476                  0.9987572       -6.143311
0.48                   0.9987662        -6.19593
0.484                  0.9987771       -6.248657
0.488                  0.9987897         -6.3015
0.492                   0.998804       -6.354464
0.496                    0.99882       -6.407557
0.5                    0.9988375       -6.460785
0.504                  0.9988569       -6.514151
0.508                  0.9988775       -6.567666
0.512                  0.9988998       -6.621332
0.516                  0.9989233       -6.675158
0.52                   0.9989483       -6.729144
0.524                  0.9989743       -6.783302
0.528                  0.9990016       -6.837631
0.532                    0.99903       -6.892139
0.536                  0.9990594       -6.946829
0.54                   0.9990895       -7.001706
0.544                  0.9991204       -7.056774
0.548                   0.999152       -7.112036
0.552                  0.9991843       -7.167495
0.556                  0.9992169       -7.223155
0.56                   0.9992499       -7.279016
0.564                  0.9992832       -7.335083
0.568                  0.9993167       -7.391357
0.572                  0.9993501        -7.44784
0.576                  0.9993835       -7.504533
0.58                   0.9994168       -7.561437
0.584                  0.9994497       -7.618552
0.588                  0.9994821        -7.67588
0.592                   0.999514       -7.733418
0.596                  0.9995452       -7.791168
0.6                    0.9995758       -7.849128
0.604                  0.9996055       -7.907297
0.608                  0.9996341       -7.965676
0.612                  0.9996618       -8.024258
0.616                  0.9996882       -8.083046
0.62                   0.9997133       -8.142037
0.624                   0.999737       -8.201224
0.628                  0.9997593       -8.260608
0.632                    0.99978       -8.320186
0.636                  0.9997991       -8.379951
0.64                   0.9998165       -8.439904
0.644                   0.999832       -8.500037
0.648                  0.9998456       -8.560346
0.652                  0.9998575       -8.620828
0.656                  0.9998671       -8.681479
0.66                   0.9998747       -8.742293
0.664                  0.9998803       -8.803264
0.668                  0.9998836       -8.864389
0.672                  0.9998849       -8.925661
0.676                  0.9998838       -8.987075
0.68                   0.9998805       -9.048626
0.684                   0.999875       -9.110307
0.688                   0.999867       -9.172113
0.692                  0.9998568        -9.23404
0.696                  0.9998442       -9.296079
0.7                    0.9998295       -9.358227
0.704                  0.9998123       -9.420478
0.708                  0.9997929       -9.482825
0.712                  0.9997712       -9.545262
0.716                  0.9997473       -9.607786
0.72                   0.9997213        -9.67039
0.724                  0.9996931       -9.733067
0.728                  0.9996627       -9.795815
0.732                  0.9996303       -9.858628
0.736                   0.999596       -9.921501
0.74                   0.9995596       -9.984428
0.744                  0.9995215       -10.04741
0.748                  0.9994815       -10.11043
0.752                  0.9994399        -10.1735
0.756                  0.9993966        -10.2366
0.76                   0.9993518       -10.29975
0.764                  0.9993057       -10.36292
0.768                  0.9992582       -10.42612
0.772                  0.9992095       -10.48935
0.776                  0.9991596       -10.55261
0.78                   0.9991088       -10.61588
0.784                  0.9990571       -10.67918
0.788                  0.9990046       -10.74251
0.792                  0.9989515       -10.80584
0.796                  0.9988979        -10.8692
0.8                    0.9988437       -10.93258
0.804                  0.9987895       -10.99598
0.808                  0.9987348        -11.0594
0.812                  0.9986803       -11.12285
0.816                  0.9986258       -11.18632
0.82                   0.9985715       -11.24981
0.824                  0.9985176       -11.31333
0.828                  0.9984642       -11.37689
0.832                  0.9984114       -11.44048
0.836                  0.9983591       -11.50411
0.84                   0.9983078       -11.56778
0.844                  0.9982573        -11.6315
0.848                  0.9982079       -11.69527
0.852                  0.9981597        -11.7591
0.856                  0.9981127         -11.823
0.86                   0.9980671       -11.88696
0.864                   0.998023         -11.951
0.868                  0.9979804       -12.01512
0.872                  0.9979395       -12.07934
0.876                  0.9979002       -12.14365
0.88                   0.9978628       -12.20806
0.884                  0.9978272       -12.27259
0.888                  0.9977936       -12.33724
0.892                   0.997762       -12.40203
0.896                  0.9977323       -12.46694
0.9                    0.9977049       -12.53201
0.904                  0.9976795       -12.59723
0.908                  0.9976563       -12.66262
0.912                  0.9976353       -12.72819
0.916                  0.9976165       -12.79394
0.92                   0.9975999       -12.85988
0.924                  0.9975855       -12.92603
0.928                  0.9975734       -12.99239
0.932                  0.9975634       -13.05898
0.936                  0.9975556        -13.1258
0.94                   0.9975498       -13.19286
0.944                  0.9975463       -13.26017
0.948                  0.9975449       -13.32775
0.952                  0.9975453        -13.3956
0.956                  0.9975479       -13.46373
0.96                   0.9975522       -13.53215
0.964                  0.9975584       -13.60087
0.968                  0.9975663        -13.6699
0.972                  0.9975759       -13.73925
0.976                   0.997587       -13.80893
0.98                   0.9975995       -13.87894
0.984                  0.9976133       -13.94929
0.988                  0.9976284       -14.01999
0.992                  0.9976447       -14.09105
0.996                  0.9976619       -14.16247
1                      0.9976799       -14.23427
1.004                  0.9976987       -14.30644
1.008                   0.997718         -14.379
1.012                  0.9977378       -14.45195
1.016                  0.9977579       -14.52529
1.02                   0.9977781       -14.59903
1.024                  0.9977983       -14.67318
1.028                  0.9978183       -14.74774
1.032                  0.9978379        -14.8227
1.036                  0.9978572       -14.89808
1.04                   0.9978757       -14.97387
1.044                  0.9978934       -15.05012
1.048                  0.9979101       -15.12675
1.052                  0.9979257        -15.2038
1.056                    0.99794       -15.28128
1.06                   0.9979529        -15.3592
1.064                  0.9979641       -15.43753
1.068                  0.9979735       -15.51629
1.072                   0.997981       -15.59547
1.076                  0.9979863       -15.67508
1.08                   0.9979895       -15.75511
1.084                  0.9979903       -15.83554
1.088                  0.9979886       -15.91638
1.092                  0.9979841       -15.99766
1.096                  0.9979769       -16.07932
1.1                    0.9979666       -16.16142
1.104                  0.9979535       -16.24387
1.108                   0.997937       -16.32676
1.112                  0.9979173       -16.41001
1.116                  0.9978944       -16.49367
1.12                   0.9978679       -16.57768
1.124                  0.9978377       -16.66207
1.128                   0.997804       -16.74686
1.132                  0.9977665       -16.83199
1.136                  0.9977253       -16.91748
1.14                   0.9976802       -17.00332
1.144                  0.9976312       -17.08951
1.148                  0.9975783       -17.17603
1.152                  0.9975213       -17.26288
1.156                  0.9974605       -17.35006
1.16                   0.9973956       -17.43755
1.164                  0.9973268       -17.52535
1.168                  0.9972539       -17.61345
1.172                   0.997177       -17.70186
1.176                   0.997096       -17.79055
1.18                   0.9970112       -17.87952
1.184                  0.9969225       -17.96877
1.188                    0.99683        -18.0583
1.192                  0.9967337       -18.14808
1.196                  0.9966335       -18.23813
1.2                    0.9965298       -18.32843
1.204                  0.9964225       -18.41897
1.208                  0.9963117       -18.50976
1.212                  0.9961975       -18.60079
1.216                  0.9960801       -18.69205
1.22                   0.9959594       -18.78355
1.224                  0.9958359       -18.87527
1.228                  0.9957093       -18.96722
1.232                  0.9955799       -19.05939
1.236                   0.995448       -19.15178
1.24                   0.9953136       -19.24438
1.244                  0.9951767       -19.33721
1.248                  0.9950378       -19.43026
1.252                  0.9948968       -19.52351
1.256                  0.9947539       -19.61699
1.26                   0.9946093       -19.71069
1.264                  0.9944632       -19.80461
1.268                  0.9943157       -19.89876
1.272                  0.9941671       -19.99313
1.276                  0.9940174       -20.08774
1.28                   0.9938668       -20.18258
1.284                  0.9937155       -20.27766
1.288                  0.9935639         -20.373
1.292                  0.9934117       -20.46858
1.296                  0.9932596       -20.56443
1.3                    0.9931073       -20.66054
1.304                  0.9929553       -20.75694
1.308                  0.9928036       -20.85361
1.312                  0.9926524       -20.95059
1.316                  0.9925017       -21.04788
1.32                    0.992352       -21.14548
1.324                   0.992203       -21.24341
1.328                  0.9920551       -21.34168
1.332                  0.9919085       -21.44032
1.336                  0.9917631       -21.53931
1.34                    0.991619       -21.63869
1.344                  0.9914765       -21.73847
1.348                  0.9913356       -21.83867
1.352                  0.9911964       -21.93928
1.356                  0.9910589       -22.04035
1.36                   0.9909233       -22.14187
1.364                  0.9907895       -22.24387
1.368                  0.9906576       -22.34637
1.372                  0.9905277       -22.44938
1.376                  0.9903997       -22.55292
1.38                   0.9902737         -22.657
1.384                  0.9901496       -22.76166
1.388                  0.9900276       -22.86689
1.392                  0.9899073       -22.97274
1.396                   0.989789       -23.07921
1.4                    0.9896724       -23.18632
1.404                  0.9895576        -23.2941
1.408                  0.9894445       -23.40255
1.412                   0.989333        -23.5117
1.416                  0.9892229       -23.62158
1.42                   0.9891141       -23.73219
1.424                  0.9890066       -23.84356
1.428                  0.9889001       -23.95571
1.432                  0.9887944       -24.06865
1.436                  0.9886895       -24.18241
1.44                   0.9885853       -24.29699
1.444                  0.9884813       -24.41243
1.448                  0.9883774       -24.52874
1.452                  0.9882735       -24.64593
1.456                  0.9881693       -24.76402
1.46                   0.9880645       -24.88303
1.464                  0.9879589       -25.00298
1.468                  0.9878523       -25.12387
1.472                  0.9877444       -25.24573
1.476                  0.9876349       -25.36857
1.48                   0.9875234        -25.4924
1.484                  0.9874098       -25.61724
1.488                  0.9872938        -25.7431
1.492                   0.987175       -25.86999
1.496                  0.9870532       -25.99793
1.5                    0.9869278       -26.12691
1.504                  0.9867988       -26.25697
1.508                  0.9866657       -26.38809
1.512                  0.9865283        -26.5203
1.516                  0.9863861        -26.6536
1.52                   0.9862391         -26.788
1.524                  0.9860865       -26.92351
1.528                  0.9859283       -27.06012
1.532                   0.985764       -27.19786
1.536                  0.9855935       -27.33672
1.54                   0.9854163        -27.4767
1.544                   0.985232       -27.61781
1.548                  0.9850404       -27.76005
1.552                  0.9848412       -27.90343
1.556                   0.984634       -28.04795
1.56                   0.9844186       -28.19361
1.564                  0.9841946        -28.3404
1.568                  0.9839618       -28.48833
1.572                  0.9837198        -28.6374
1.576                  0.9834684       -28.78761
1.58                   0.9832073       -28.93895
1.584                  0.9829362       -29.09142
1.588                   0.982655       -29.24502
1.592                  0.9823634       -29.39975
1.596                  0.9820609        -29.5556
1.6                    0.9817478       -29.71257
1.604                  0.9814234       -29.87066
1.608                  0.9810878       -30.02987
1.612                  0.9807407       -30.19017
1.616                  0.9803819       -30.35159
1.62                   0.9800116        -30.5141
1.624                   0.979629       -30.67771
1.628                  0.9792344       -30.84241
1.632                  0.9788278       -31.00819
1.636                  0.9784087       -31.17507
1.64                   0.9779773       -31.34301
1.644                  0.9775337       -31.51203
1.648                  0.9770773       -31.68212
1.652                  0.9766085       -31.85328
1.656                  0.9761269        -32.0255
1.66                   0.9756329       -32.19878
1.664                  0.9751261       -32.37314
1.668                  0.9746067       -32.54853
1.672                   0.974075       -32.72499
1.676                  0.9735306        -32.9025
1.68                   0.9729737       -33.08108
1.684                  0.9724043       -33.26071
1.688                  0.9718224        -33.4414
1.692                  0.9712283       -33.62316
1.696                   0.970622       -33.80598
1.7                    0.9700036       -33.98987
1.704                   0.969373       -34.17484
1.708                  0.9687306        -34.3609
1.712                  0.9680764       -34.54805
1.716                  0.9674107       -34.73629
1.72                   0.9667332       -34.92565
1.724                  0.9660444       -35.11613
1.728                  0.9653444       -35.30774
1.732                  0.9646332        -35.5005
1.736                   0.963911       -35.69443
1.74                   0.9631781       -35.88954
1.744                  0.9624345       -36.08584
1.748                  0.9616803       -36.28337
1.752                  0.9609157       -36.48213
1.756                  0.9601408       -36.68215
1.76                   0.9593557       -36.88347
1.764                  0.9585607       -37.08608
1.768                  0.9577558       -37.29004
1.772                  0.9569412       -37.49536
1.776                  0.9561168       -37.70208
1.78                   0.9552828       -37.91022
1.784                  0.9544393       -38.11982
1.788                  0.9535864       -38.33093
1.792                   0.952724       -38.54356
1.796                  0.9518523       -38.75776
1.8                    0.9509713       -38.97357
1.804                  0.9500808       -39.19103
1.808                  0.9491811       -39.41018
1.812                   0.948272       -39.63107
1.816                  0.9473531       -39.85374
1.82                   0.9464249       -40.07823
1.824                  0.9454869        -40.3046
1.828                  0.9445392       -40.53289
1.832                  0.9435814       -40.76315
1.836                  0.9426135       -40.99545
1.84                   0.9416353       -41.22982
1.844                  0.9406464       -41.46633
1.848                  0.9396464       -41.70503
1.852                  0.9386355       -41.94597
1.856                   0.937613       -42.18923
1.86                   0.9365785       -42.43483
1.864                  0.9355318       -42.68287
1.868                  0.9344723       -42.93338
1.872                  0.9333996       -43.18643
1.876                  0.9323133       -43.44209
1.88                   0.9312127       -43.70042
1.884                  0.9300974       -43.96147
1.888                  0.9289666       -44.22532
1.892                  0.9278197       -44.49202
1.896                  0.9266562       -44.76165
1.9                    0.9254753       -45.03425
1.904                  0.9242762       -45.30991
1.908                  0.9230583       -45.58868
1.912                  0.9218206       -45.87063
1.916                  0.9205623       -46.15583
1.92                   0.9192826       -46.44434
1.924                  0.9179804       -46.73622
1.928                  0.9166551       -47.03153
1.932                  0.9153053       -47.33035
1.936                  0.9139302       -47.63273
1.94                   0.9125289       -47.93875
1.944                  0.9111002       -48.24846
1.948                   0.909643       -48.56192
1.952                  0.9081559        -48.8792
1.956                  0.9066383       -49.20036
1.96                   0.9050886       -49.52546
1.964                  0.9035059       -49.85456
1.968                  0.9018886       -50.18772
1.972                  0.9002358       -50.52499
1.976                  0.8985459       -50.86644
1.98                   0.8968179       -51.21212
1.984                  0.8950504        -51.5621
1.988                   0.893242       -51.91641
1.992                  0.8913912       -52.27513
1.996                  0.8894971       -52.63829
2                      0.8875579       -53.00596
2.004                  0.8855724       -53.37818
2.008                  0.8835392       -53.75501
2.012                  0.8814569       -54.13649
2.016                   0.879324       -54.52267
2.02                   0.8771392       -54.91361
2.024                  0.8749011       -55.30932
2.028                  0.8726081        -55.7099
2.032                   0.870259       -56.11535
2.036                  0.8678524       -56.52573
2.04                   0.8653866       -56.94108
2.044                  0.8628604       -57.36145
2.048                  0.8602725       -57.78687
2.052                  0.8576215       -58.21739
2.056                  0.8549058       -58.65303
2.06                   0.8521243       -59.09385
2.064                  0.8492754       -59.53989
2.068                  0.8463581       -59.99117
2.072                  0.8433708       -60.44773
2.076                  0.8403124       -60.90961
2.08                   0.8371816       -61.37686
2.084                   0.833977        -61.8495
2.088                  0.8306976       -62.32756
2.092                  0.8273422       -62.81109
2.096                  0.8239096       -63.30013
2.1                    0.8203986       -63.79469
2.104                  0.8168082       -64.29482
2.108                  0.8131372       -64.80057
2.112                  0.8093849       -65.31195
2.116                    0.80555       -65.82902
2.12                   0.8016316        -66.3518
2.124                  0.7976291       -66.88032
2.128                  0.7935412       -67.41466
2.132                  0.7893674       -67.95482
2.136                  0.7851068       -68.50085
2.14                   0.7807588       -69.05279
2.144                  0.7763225        -69.6107
2.148                  0.7717975        -70.1746
2.152                   0.767183       -70.74457
2.156                  0.7624787       -71.32063
2.16                   0.7576841       -71.90283
2.164                  0.7527985       -72.49127
2.168                  0.7478219       -73.08593
2.172                  0.7427538       -73.68693
2.176                   0.737594       -74.29433
2.18                   0.7323423       -74.90814
2.184                  0.7269986       -75.52849
2.188                  0.7215627       -76.15543
2.192                  0.7160348       -76.78903
2.196                  0.7104148       -77.42938
2.2                     0.704703       -78.07656
2.204                  0.6988993       -78.73067
2.208                  0.6930042       -79.39179
2.212                  0.6870179       -80.06004
2.216                  0.6809409       -80.73555
2.22                   0.6747735       -81.41841
2.224                  0.6685164       -82.10872
2.228                  0.6621699       -82.80665
2.232                   0.655735       -83.51232
2.236                  0.6492122       -84.22591
2.24                   0.6426026       -84.94754
2.244                  0.6359068       -85.67741
2.248                  0.6291258       -86.41567
2.252                  0.6222608       -87.16254
2.256                  0.6153127       -87.91823
2.26                   0.6082829       -88.68293
2.264                  0.6011726       -89.45688
2.268                  0.5939833       -90.24036
2.272                  0.5867162        -91.0336
2.276                  0.5793728        -91.8369
2.28                    0.571955       -92.65058
2.284                  0.5644643       -93.47495
2.288                  0.5569026       -94.31036
2.292                  0.5492717       -95.15717
2.296                  0.5415736        -96.0158
2.3                    0.5338105       -96.88668
2.304                  0.5259846       -97.77023
2.308                   0.518098       -98.66701
2.312                  0.5101531       -99.57747
2.316                  0.5021526       -100.5022
2.32                    0.494099       -101.4418
2.324                  0.4859951        -102.397
2.328                  0.4778438       -103.3684
2.332                  0.4696482       -104.3568
2.336                  0.4614113        -105.363
2.34                   0.4531365       -106.3879
2.344                  0.4448273       -107.4323
2.348                  0.4364872       -108.4974
2.352                  0.4281202       -109.5842