! TOUCHSTONE file generated by CST MICROWAVE STUDIO
! Date and time: Thu May 12 15:28:10 2022
! Project name: AppElm_antenne_dipole_FR4.cst
! Parameters = {L=38.8; e=0.035; f=2.45e+09; h=1.6; i=0.8; l1=3.6; lambda=122.449; ls=30; wl=1.7; ws=80}
! Header version: 2018
! Port assignment regex: !\s*Touchstone port\s*([0-9]+)\s*=\s*(CST MWS port|CST DS port)\s*([0-9]+|Zmin|Zmax)\s*\(\"(.*)\"\)(\s*mode\s*([0-9]+))?.*
! Touchstone port assignment:
! Touchstone port 1 = CST MWS port 1 ("")
# GHz S MA R 50
0                      0.9995782              -0
0.004                  0.9995785     -0.05207029
0.008                  0.9995797      -0.1041438
0.012                  0.9995815      -0.1562236
0.016                  0.9995841       -0.208313
0.02                   0.9995875      -0.2604151
0.024                  0.9995915       -0.312533
0.028                  0.9995963      -0.3646697
0.032                  0.9996018      -0.4168283
0.036                  0.9996079      -0.4690117
0.04                   0.9996146      -0.5212227
0.044                   0.999622      -0.5734643
0.048                  0.9996299      -0.6257391
0.052                  0.9996385      -0.6780496
0.056                  0.9996475      -0.7303985
0.06                   0.9996572      -0.7827881
0.064                  0.9996672      -0.8352208
0.068                  0.9996777      -0.8876987
0.072                  0.9996886      -0.9402239
0.076                  0.9996998      -0.9927983
0.08                   0.9997113       -1.045424
0.084                  0.9997231       -1.098102
0.088                  0.9997351       -1.150834
0.092                  0.9997473       -1.203622
0.096                  0.9997597       -1.256467
0.1                    0.9997721        -1.30937
0.104                  0.9997846       -1.362331
0.108                  0.9997971       -1.415352
0.112                  0.9998095       -1.468433
0.116                  0.9998219       -1.521574
0.12                   0.9998341       -1.574777
0.124                  0.9998462        -1.62804
0.128                   0.999858       -1.681364
0.132                  0.9998695        -1.73475
0.136                  0.9998806       -1.788195
0.14                   0.9998915       -1.841701
0.144                  0.9999019       -1.895267
0.148                  0.9999119       -1.948891
0.152                  0.9999214       -2.002572
0.156                  0.9999304       -2.056311
0.16                   0.9999389       -2.110105
0.164                  0.9999467       -2.163954
0.168                  0.9999539       -2.217856
0.172                  0.9999605       -2.271809
0.176                  0.9999663       -2.325813
0.18                   0.9999715       -2.379864
0.184                   0.999976       -2.433963
0.188                  0.9999796       -2.488106
0.192                  0.9999825       -2.542292
0.196                  0.9999847       -2.596518
0.2                    0.9999861       -2.650784
0.204                  0.9999866       -2.705086
0.208                  0.9999864       -2.759423
0.212                  0.9999852       -2.813793
0.216                  0.9999832       -2.868193
0.22                   0.9999805       -2.922621
0.224                  0.9999769       -2.977075
0.228                  0.9999726       -3.031553
0.232                  0.9999673       -3.086053
0.236                  0.9999612       -3.140573
0.24                   0.9999544       -3.195111
0.244                  0.9999469       -3.249664
0.248                  0.9999386       -3.304231
0.252                  0.9999297        -3.35881
0.256                  0.9999199       -3.413399
0.26                   0.9999095       -3.467997
0.264                  0.9998985       -3.522601
0.268                  0.9998868        -3.57721
0.272                  0.9998746       -3.631825
0.276                   0.999862        -3.68644
0.28                   0.9998487       -3.741058
0.284                  0.9998352       -3.795676
0.288                   0.999821       -3.850293
0.292                  0.9998066       -3.904909
0.296                  0.9997918       -3.959524
0.3                    0.9997768       -4.014136
0.304                  0.9997616       -4.068745
0.308                  0.9997461       -4.123353
0.312                  0.9997305       -4.177958
0.316                  0.9997149        -4.23256
0.32                   0.9996993       -4.287159
0.324                  0.9996837       -4.341758
0.328                   0.999668       -4.396356
0.332                  0.9996528       -4.450954
0.336                  0.9996375       -4.505554
0.34                   0.9996225       -4.560156
0.344                  0.9996079       -4.614763
0.348                  0.9995936       -4.669375
0.352                  0.9995796       -4.723995
0.356                  0.9995661       -4.778625
0.36                   0.9995531       -4.833265
0.364                  0.9995406        -4.88792
0.368                  0.9995287       -4.942592
0.372                  0.9995175       -4.997284
0.376                  0.9995069       -5.051996
0.38                   0.9994969       -5.106735
0.384                  0.9994878       -5.161501
0.388                  0.9994794       -5.216298
0.392                  0.9994718        -5.27113
0.396                   0.999465          -5.326
0.4                    0.9994591       -5.380912
0.404                  0.9994542       -5.435869
0.408                  0.9994501       -5.490875
0.412                  0.9994469       -5.545934
0.416                  0.9994447       -5.601049
0.42                   0.9994434       -5.656226
0.424                  0.9994431       -5.711468
0.428                  0.9994438       -5.766779
0.432                  0.9994454       -5.822163
0.436                  0.9994481       -5.877624
0.44                   0.9994516       -5.933167
0.444                  0.9994562       -5.988796
0.448                  0.9994617       -6.044514
0.452                  0.9994682       -6.100325
0.456                  0.9994755       -6.156235
0.46                   0.9994837       -6.212248
0.464                  0.9994928       -6.268366
0.468                  0.9995027       -6.324594
0.472                  0.9995136       -6.380936
0.476                  0.9995251       -6.437397
0.48                   0.9995373       -6.493978
0.484                  0.9995503       -6.550684
0.488                   0.999564       -6.607518
0.492                  0.9995782       -6.664484
0.496                   0.999593       -6.721585
0.5                    0.9996083       -6.778825
0.504                  0.9996241       -6.836205
0.508                  0.9996403       -6.893729
0.512                  0.9996567       -6.951399
0.516                  0.9996735       -7.009218
0.52                   0.9996906       -7.067188
0.524                  0.9997079       -7.125309
0.528                  0.9997251       -7.183588
0.532                  0.9997424       -7.242022
0.536                  0.9997598       -7.300613
0.54                    0.999777       -7.359363
0.544                  0.9997941       -7.418275
0.548                  0.9998109       -7.477347
0.552                  0.9998273       -7.536581
0.556                  0.9998435       -7.595977
0.56                   0.9998591       -7.655536
0.564                  0.9998743       -7.715256
0.568                  0.9998888        -7.77514
0.572                  0.9999029       -7.835184
0.576                  0.9999161        -7.89539
0.58                   0.9999288       -7.955756
0.584                  0.9999403       -8.016283
0.588                  0.9999511       -8.076966
0.592                  0.9999611       -8.137807
0.596                  0.9999699       -8.198802
0.6                    0.9999778       -8.259949
0.604                  0.9999844        -8.32125
0.608                  0.9999901         -8.3827
0.612                  0.9999945       -8.444297
0.616                  0.9999975       -8.506039
0.62                   0.9999993       -8.567922
0.624                          1       -8.629945
0.628                  0.9999992       -8.692106
0.632                   0.999997         -8.7544
0.636                  0.9999934       -8.816826
0.64                   0.9999883       -8.879379
0.644                   0.999982       -8.942056
0.648                   0.999974       -9.004858
0.652                  0.9999648       -9.067777
0.656                  0.9999539       -9.130811
0.66                   0.9999417       -9.193958
0.664                   0.999928       -9.257213
0.668                  0.9999127       -9.320575
0.672                  0.9998961       -9.384038
0.676                  0.9998781         -9.4476
0.68                   0.9998587       -9.511259
0.684                  0.9998378       -9.575014
0.688                  0.9998156       -9.638855
0.692                   0.999792       -9.702785
0.696                  0.9997672         -9.7668
0.7                    0.9997411       -9.830896
0.704                  0.9997139       -9.895072
0.708                  0.9996855       -9.959324
0.712                  0.9996559       -10.02365
0.716                  0.9996253       -10.08805
0.72                   0.9995938       -10.15252
0.724                  0.9995613       -10.21707
0.728                   0.999528       -10.28167
0.732                  0.9994938       -10.34635
0.736                   0.999459       -10.41109
0.74                   0.9994234       -10.47589
0.744                  0.9993873       -10.54076
0.748                  0.9993508       -10.60569
0.752                  0.9993138       -10.67069
0.756                  0.9992765       -10.73575
0.76                   0.9992388       -10.80087
0.764                  0.9992011       -10.86606
0.768                  0.9991632       -10.93132
0.772                  0.9991253       -10.99664
0.776                  0.9990875       -11.06203
0.78                   0.9990499        -11.1275
0.784                  0.9990124       -11.19303
0.788                  0.9989754       -11.25865
0.792                  0.9989387       -11.32434
0.796                  0.9989025       -11.39011
0.8                    0.9988669       -11.45597
0.804                  0.9988319       -11.52191
0.808                  0.9987977       -11.58795
0.812                  0.9987643       -11.65409
0.816                  0.9987318       -11.72032
0.82                   0.9987002       -11.78666
0.824                  0.9986696       -11.85312
0.828                    0.99864       -11.91969
0.832                  0.9986116       -11.98638
0.836                  0.9985844       -12.05319
0.84                   0.9985585       -12.12015
0.844                  0.9985338       -12.18724
0.848                  0.9985105       -12.25447
0.852                  0.9984885       -12.32186
0.856                   0.998468       -12.38941
0.86                   0.9984489       -12.45713
0.864                  0.9984312       -12.52501
0.868                  0.9984151       -12.59308
0.872                  0.9984005       -12.66134
0.876                  0.9983873       -12.72978
0.88                   0.9983757       -12.79844
0.884                  0.9983657        -12.8673
0.888                  0.9983571       -12.93638
0.892                  0.9983499       -13.00568
0.896                  0.9983443       -13.07522
0.9                    0.9983402       -13.14499
0.904                  0.9983374       -13.21502
0.908                  0.9983361        -13.2853
0.912                  0.9983361       -13.35584
0.916                  0.9983374       -13.42665
0.92                   0.9983399       -13.49774
0.924                  0.9983437       -13.56911
0.928                  0.9983486       -13.64078
0.932                  0.9983545       -13.71274
0.936                  0.9983614       -13.78501
0.94                   0.9983692       -13.85759
0.944                  0.9983778       -13.93049
0.948                  0.9983872       -14.00371
0.952                  0.9983973       -14.07727
0.956                  0.9984079       -14.15116
0.96                   0.9984189       -14.22539
0.964                  0.9984302       -14.29997
0.968                  0.9984418        -14.3749
0.972                  0.9984536       -14.45019
0.976                  0.9984653       -14.52584
0.98                   0.9984768       -14.60185
0.984                  0.9984883       -14.67823
0.988                  0.9984992       -14.75499
0.992                  0.9985099       -14.83212
0.996                  0.9985199       -14.90963
1                       0.998529       -14.98751
1.004                  0.9985375       -15.06579
1.008                  0.9985449       -15.14444
1.012                  0.9985512       -15.22348
1.016                  0.9985562       -15.30291
1.02                   0.9985599       -15.38273
1.024                  0.9985623       -15.46292
1.028                  0.9985629       -15.54351
1.032                  0.9985619       -15.62448
1.036                   0.998559       -15.70585
1.04                    0.998554       -15.78759
1.044                  0.9985471       -15.86972
1.048                   0.998538       -15.95225
1.052                  0.9985266       -16.03517
1.056                  0.9985128       -16.11842
1.06                   0.9984965       -16.20207
1.064                  0.9984775       -16.28608
1.068                  0.9984558       -16.37048
1.072                  0.9984316       -16.45523
1.076                  0.9984044       -16.54036
1.08                   0.9983742       -16.62582
1.084                  0.9983411       -16.71163
1.088                   0.998305       -16.79783
1.092                  0.9982657       -16.88438
1.096                  0.9982232       -16.97123
1.1                    0.9981776       -17.05844
1.104                  0.9981287       -17.14598
1.108                  0.9980765       -17.23384
1.112                  0.9980212       -17.32203
1.116                  0.9979623       -17.41052
1.12                   0.9979002       -17.49934
1.124                  0.9978349       -17.58846
1.128                  0.9977662       -17.67789
1.132                  0.9976942       -17.76762
1.136                   0.997619       -17.85764
1.14                   0.9975403       -17.94794
1.144                  0.9974587       -18.03853
1.148                  0.9973737        -18.1294
1.152                  0.9972857       -18.22055
1.156                  0.9971947       -18.31196
1.16                   0.9971006       -18.40365
1.164                  0.9970037        -18.4956
1.168                  0.9969039       -18.58781
1.172                  0.9968012       -18.68028
1.176                   0.996696         -18.773
1.18                   0.9965882       -18.86597
1.184                   0.996478        -18.9592
1.188                  0.9963654       -19.05268
1.192                  0.9962504        -19.1464
1.196                  0.9961335       -19.24038
1.2                    0.9960144        -19.3346
1.204                  0.9958936       -19.42907
1.208                  0.9957709       -19.52379
1.212                  0.9956468       -19.61875
1.216                  0.9955211       -19.71397
1.22                   0.9953941       -19.80944
1.224                  0.9952659       -19.90517
1.228                  0.9951367       -20.00116
1.232                  0.9950065       -20.09741
1.236                  0.9948757       -20.19393
1.24                   0.9947441       -20.29073
1.244                  0.9946122        -20.3878
1.248                  0.9944799       -20.48515
1.252                  0.9943474        -20.5828
1.256                  0.9942149       -20.68074
1.26                   0.9940825       -20.77899
1.264                  0.9939504       -20.87756
1.268                  0.9938186       -20.97645
1.272                  0.9936874       -21.07567
1.276                  0.9935568       -21.17523
1.28                   0.9934268       -21.27515
1.284                   0.993298       -21.37543
1.288                  0.9931698        -21.4761
1.292                  0.9930429       -21.57715
1.296                  0.9929172        -21.6786
1.3                    0.9927927       -21.78046
1.304                  0.9926695       -21.88276
1.308                  0.9925479        -21.9855
1.312                  0.9924276       -22.08869
1.316                   0.992309       -22.19236
1.32                   0.9921918       -22.29652
1.324                  0.9920764       -22.40118
1.328                  0.9919626       -22.50637
1.332                  0.9918505       -22.61208
1.336                  0.9917402       -22.71835
1.34                   0.9916314       -22.82519
1.344                  0.9915244       -22.93262
1.348                   0.991419       -23.04066
1.352                  0.9913152       -23.14931
1.356                   0.991213       -23.25861
1.36                   0.9911123       -23.36856
1.364                   0.991013       -23.47919
1.368                  0.9909151       -23.59051
1.372                  0.9908185       -23.70255
1.376                   0.990723       -23.81531
1.38                   0.9906286       -23.92882
1.384                   0.990535        -24.0431
1.388                  0.9904423       -24.15816
1.392                  0.9903502       -24.27401
1.396                  0.9902585       -24.39069
1.4                    0.9901671        -24.5082
1.404                  0.9900758       -24.62656
1.408                  0.9899846       -24.74579
1.412                  0.9898929        -24.8659
1.416                  0.9898007       -24.98691
1.42                   0.9897078       -25.10884
1.424                   0.989614        -25.2317
1.428                  0.9895189        -25.3555
1.432                  0.9894224       -25.48027
1.436                  0.9893241         -25.606
1.44                   0.9892238       -25.73273
1.444                  0.9891215       -25.86045
1.448                  0.9890165       -25.98918
1.452                  0.9889087       -26.11894
1.456                  0.9887978       -26.24972
1.46                   0.9886836       -26.38156
1.464                  0.9885657       -26.51445
1.468                  0.9884437        -26.6484
1.472                  0.9883175       -26.78342
1.476                  0.9881866       -26.91952
1.48                   0.9880508       -27.05672
1.484                  0.9879099       -27.19501
1.488                  0.9877635        -27.3344
1.492                  0.9876112       -27.47489
1.496                  0.9874527        -27.6165
1.5                    0.9872878       -27.75922
1.504                  0.9871161       -27.90306
1.508                  0.9869375       -28.04803
1.512                  0.9867516       -28.19412
1.516                   0.986558       -28.34134
1.52                   0.9863564       -28.48969
1.524                  0.9861467       -28.63917
1.528                  0.9859285       -28.78977
1.532                  0.9857016       -28.94151
1.536                  0.9854658       -29.09439
1.54                   0.9852207       -29.24838
1.544                  0.9849661       -29.40351
1.548                  0.9847018       -29.55977
1.552                  0.9844275       -29.71715
1.556                  0.9841432       -29.87564
1.56                   0.9838485       -30.03526
1.564                  0.9835431         -30.196
1.568                  0.9832271       -30.35785
1.572                  0.9829005       -30.52081
1.576                  0.9825624       -30.68487
1.58                   0.9822135       -30.85005
1.584                  0.9818532       -31.01631
1.588                  0.9814813       -31.18368
1.592                  0.9810981       -31.35214
1.596                  0.9807032       -31.52169
1.6                    0.9802965       -31.69233
1.604                  0.9798782       -31.86405
1.608                   0.979448       -32.03685
1.612                   0.979006       -32.21074
1.616                   0.978552        -32.3857
1.62                   0.9780863       -32.56175
1.624                  0.9776087       -32.73885
1.628                  0.9771193       -32.91704
1.632                  0.9766178       -33.09631
1.636                  0.9761047       -33.27666
1.64                   0.9755799       -33.45807
1.644                  0.9750433       -33.64057
1.648                  0.9744951       -33.82415
1.652                  0.9739354       -34.00883
1.656                  0.9733643       -34.19459
1.66                   0.9727819       -34.38145
1.664                  0.9721881       -34.56941
1.668                  0.9715834       -34.75849
1.672                  0.9709676       -34.94868
1.676                   0.970341       -35.14001
1.68                   0.9697036       -35.33248
1.684                  0.9690558        -35.5261
1.688                  0.9683974       -35.72089
1.692                  0.9677288       -35.91687
1.696                  0.9670501       -36.11404
1.7                    0.9663613       -36.31244
1.704                  0.9656628       -36.51206
1.708                  0.9649546       -36.71294
1.712                  0.9642369       -36.91511
1.716                  0.9635097       -37.11858
1.72                   0.9627733       -37.32337
1.724                  0.9620278       -37.52952
1.728                  0.9612733       -37.73704
1.732                  0.9605099       -37.94598
1.736                  0.9597379       -38.15636
1.74                   0.9589572       -38.36822
1.744                  0.9581677       -38.58159
1.748                  0.9573699       -38.79649
1.752                  0.9565636       -39.01298
1.756                  0.9557488       -39.23109
1.76                   0.9549258       -39.45087
1.764                  0.9540943       -39.67234
1.768                  0.9532545       -39.89557
1.772                  0.9524062        -40.1206
1.776                  0.9515495       -40.34745
1.78                   0.9506843       -40.57619
1.784                  0.9498104       -40.80688
1.788                  0.9489278       -41.03954
1.792                  0.9480363       -41.27425
1.796                  0.9471357       -41.51105
1.8                    0.9462258          -41.75
1.804                  0.9453065       -41.99115
1.808                  0.9443774       -42.23456
1.812                  0.9434381        -42.4803
1.816                  0.9424887        -42.7284
1.82                   0.9415283       -42.97896
1.824                   0.940557       -43.23201
1.828                   0.939574       -43.48762
1.832                  0.9385791       -43.74585
1.836                  0.9375717       -44.00678
1.84                   0.9365513       -44.27046
1.844                  0.9355173       -44.53696
1.848                  0.9344693       -44.80635
1.852                  0.9334065       -45.07868
1.856                  0.9323283       -45.35403
1.86                    0.931234       -45.63247
1.864                  0.9301228       -45.91407
1.868                   0.928994       -46.19888
1.872                  0.9278468       -46.48697
1.876                  0.9266804       -46.77843
1.88                   0.9254937        -47.0733
1.884                  0.9242861       -47.37167
1.888                  0.9230564        -47.6736
1.892                   0.921804       -47.97915
1.896                  0.9205275        -48.2884
1.9                     0.919226       -48.60141
1.904                  0.9178985       -48.91823
1.908                  0.9165438       -49.23897
1.912                  0.9151609       -49.56366
1.916                  0.9137484       -49.89237
1.92                   0.9123055       -50.22516
1.924                  0.9108305       -50.56212
1.928                  0.9093226       -50.90329
1.932                  0.9077803       -51.24874
1.936                  0.9062024       -51.59852
1.94                   0.9045875       -51.95272
1.944                  0.9029345       -52.31136
1.948                  0.9012418       -52.67454
1.952                  0.8995081        -53.0423
1.956                  0.8977322       -53.41468
1.96                   0.8959124       -53.79177
1.964                  0.8940476       -54.17361
1.968                  0.8921362       -54.56025
1.972                  0.8901769       -54.95175
1.976                   0.888168       -55.34817
1.98                   0.8861085       -55.74955
1.984                  0.8839966       -56.15594
1.988                   0.881831       -56.56741
1.992                  0.8796102       -56.98399
1.996                  0.8773329       -57.40573
2                      0.8749974       -57.83269
2.004                  0.8726025       -58.26491
2.008                  0.8701467       -58.70245
2.012                  0.8676286       -59.14532
2.016                  0.8650467        -59.5936
2.02                   0.8623996       -60.04733
2.024                  0.8596862       -60.50654
2.028                  0.8569048       -60.97128
2.032                   0.854054        -61.4416
2.036                   0.851133       -61.91753
2.04                   0.8481401       -62.39911
2.044                   0.845074       -62.88641
2.048                  0.8419335       -63.37945
2.052                  0.8387174       -63.87827
2.056                  0.8354246       -64.38293
2.06                   0.8320539       -64.89345
2.064                  0.8286039       -65.40989
2.068                  0.8250738       -65.93229
2.072                  0.8214625       -66.46069
2.076                   0.817769       -66.99512
2.08                    0.813992       -67.53566
2.084                   0.810131       -68.08234
2.088                  0.8061848       -68.63519
2.092                  0.8021527       -69.19428
2.096                  0.7980338       -69.75965
2.1                    0.7938274       -70.33136
2.104                  0.7895327       -70.90945
2.108                  0.7851492       -71.49397
2.112                  0.7806762       -72.08499
2.116                  0.7761131       -72.68257
2.12                   0.7714594       -73.28678
2.124                  0.7667148       -73.89766
2.128                  0.7618787       -74.51528
2.132                  0.7569509       -75.13973
2.136                  0.7519312       -75.77107
2.14                   0.7468192       -76.40936
2.144                  0.7416148       -77.05473
2.148                  0.7363182       -77.70722
2.152                   0.730929       -78.36694
2.156                  0.7254474       -79.03397
2.16                   0.7198737       -79.70843
2.164                  0.7142078       -80.39041
2.168                  0.7084501       -81.08002
2.172                  0.7026009        -81.7774
2.176                  0.6966607       -82.48264
2.18                   0.6906298       -83.19589
2.184                  0.6845088       -83.91731
2.188                  0.6782985       -84.64702
2.192                  0.6719995       -85.38519
2.196                  0.6656124       -86.13197
2.2                    0.6591383       -86.88756
2.204                  0.6525781       -87.65211
2.208                  0.6459327       -88.42586
2.212                  0.6392034       -89.20901
2.216                  0.6323912       -90.00179
2.22                   0.6254975       -90.80442
2.224                  0.6185237       -91.61716
2.228                  0.6114713       -92.44028
2.232                  0.6043417       -93.27407
2.236                  0.5971366       -94.11884
2.24                   0.5898578       -94.97491
2.244                  0.5825072       -95.84262
2.248                  0.5750865       -96.72233
2.252                   0.567598       -97.61445
2.256                  0.5600438        -98.5194
2.26                   0.5524263       -99.43762
2.264                  0.5447476       -100.3696
2.268                  0.5370105       -101.3158
2.272                  0.5292175       -102.2768
2.276                  0.5213714       -103.2532
2.28                   0.5134751       -104.2455
2.284                  0.5055315       -105.2545
2.288                   0.497544       -106.2808
2.292                  0.4895158       -107.3252
2.296                  0.4814504       -108.3885
2.3                    0.4733516       -109.4716
2.304                  0.4652231       -110.5753
2.308                   0.457069       -111.7007
2.312                  0.4488936       -112.8488
2.316                  0.4407012       -114.0206
2.32                   0.4324966       -115.2175
2.324                  0.4242847       -116.4407
2.328                  0.4160707       -117.6915
2.332                    0.40786       -118.9715
2.336                  0.3996583       -120.2822
2.34                   0.3914719       -121.6252
2.344                   0.383307       -123.0024
2.348                  0.3751705       -124.4156
2.352                  0.3670696        -125.867