! TOUCHSTONE file generated by CST MICROWAVE STUDIO
! Date and time: Thu May 12 15:28:13 2022
! Project name: AppElm_antenne_dipole_FR4.cst
! Parameters = {L=38.8; e=0.035; f=2.45e+09; h=1.6; i=0.8; l1=4.2; lambda=122.449; ls=30; wl=1.7; ws=80}
! Header version: 2018
! Port assignment regex: !\s*Touchstone port\s*([0-9]+)\s*=\s*(CST MWS port|CST DS port)\s*([0-9]+|Zmin|Zmax)\s*\(\"(.*)\"\)(\s*mode\s*([0-9]+))?.*
! Touchstone port assignment:
! Touchstone port 1 = CST MWS port 1 ("")
# GHz S MA R 50
0                      0.9999414              -0
0.004                  0.9999408     -0.05647044
0.008                  0.9999392      -0.1129385
0.012                  0.9999363       -0.169402
0.016                  0.9999324      -0.2258584
0.02                   0.9999276      -0.2823056
0.024                  0.9999215      -0.3387412
0.028                  0.9999144       -0.395163
0.032                  0.9999062      -0.4515689
0.036                   0.999897      -0.5079564
0.04                   0.9998867      -0.5643238
0.044                  0.9998756      -0.6206688
0.048                  0.9998634      -0.6769894
0.052                  0.9998503      -0.7332837
0.056                  0.9998364      -0.7895498
0.06                   0.9998214       -0.845786
0.064                  0.9998057      -0.9019906
0.068                  0.9997891      -0.9581618
0.072                  0.9997717       -1.014298
0.076                  0.9997536       -1.070398
0.08                   0.9997348        -1.12646
0.084                  0.9997154       -1.182484
0.088                  0.9996952       -1.238468
0.092                  0.9996745        -1.29441
0.096                  0.9996534       -1.350311
0.1                    0.9996317       -1.406169
0.104                  0.9996097       -1.461983
0.108                  0.9995872       -1.517754
0.112                  0.9995643        -1.57348
0.116                  0.9995411       -1.629162
0.12                   0.9995176       -1.684799
0.124                  0.9994941       -1.740391
0.128                  0.9994705       -1.795939
0.132                  0.9994467       -1.851443
0.136                  0.9994228       -1.906902
0.14                    0.999399       -1.962319
0.144                  0.9993753       -2.017692
0.148                  0.9993517       -2.073024
0.152                  0.9993284       -2.128315
0.156                  0.9993051       -2.183567
0.16                   0.9992823        -2.23878
0.164                  0.9992598       -2.293957
0.168                  0.9992377       -2.349098
0.172                   0.999216       -2.404205
0.176                  0.9991949       -2.459281
0.18                   0.9991743       -2.514327
0.184                  0.9991542       -2.569345
0.188                  0.9991348       -2.624337
0.192                  0.9991161       -2.679307
0.196                  0.9990981       -2.734257
0.2                     0.999081       -2.789188
0.204                  0.9990646       -2.844104
0.208                  0.9990491       -2.899009
0.212                  0.9990345       -2.953903
0.216                  0.9990209       -3.008792
0.22                   0.9990081       -3.063678
0.224                  0.9989964       -3.118564
0.228                  0.9989857       -3.173455
0.232                  0.9989762       -3.228353
0.236                  0.9989675       -3.283261
0.24                   0.9989602       -3.338184
0.244                  0.9989539       -3.393126
0.248                  0.9989487       -3.448089
0.252                  0.9989448       -3.503079
0.256                   0.998942       -3.558099
0.26                   0.9989405       -3.613152
0.264                    0.99894       -3.668243
0.268                  0.9989409       -3.723376
0.272                  0.9989428       -3.778556
0.276                  0.9989461       -3.833785
0.28                   0.9989505       -3.889068
0.284                  0.9989561       -3.944409
0.288                  0.9989629       -3.999814
0.292                  0.9989709       -4.055284
0.296                  0.9989802       -4.110825
0.3                    0.9989906       -4.166441
0.304                   0.999002       -4.222136
0.308                  0.9990146       -4.277912
0.312                  0.9990283       -4.333775
0.316                   0.999043       -4.389729
0.32                    0.999059       -4.445777
0.324                  0.9990756       -4.501922
0.328                  0.9990933        -4.55817
0.332                  0.9991119       -4.614522
0.336                  0.9991315       -4.670983
0.34                   0.9991518       -4.727556
0.344                  0.9991731       -4.784244
0.348                   0.999195        -4.84105
0.352                  0.9992176       -4.897978
0.356                   0.999241       -4.955031
0.36                   0.9992648       -5.012211
0.364                  0.9992892       -5.069521
0.368                   0.999314       -5.126963
0.372                  0.9993394       -5.184539
0.376                  0.9993652       -5.242253
0.38                   0.9993912       -5.300106
0.384                  0.9994174       -5.358099
0.388                  0.9994438       -5.416236
0.392                  0.9994704       -5.474516
0.396                  0.9994969       -5.532943
0.4                    0.9995234       -5.591517
0.404                  0.9995499       -5.650238
0.408                  0.9995762       -5.709108
0.412                  0.9996025       -5.768127
0.416                  0.9996282       -5.827297
0.42                   0.9996538       -5.886618
0.424                  0.9996787       -5.946089
0.428                  0.9997033       -6.005711
0.432                  0.9997273       -6.065482
0.436                  0.9997507       -6.125403
0.44                   0.9997735       -6.185474
0.444                  0.9997953       -6.245694
0.448                  0.9998166       -6.306061
0.452                  0.9998368       -6.366576
0.456                  0.9998562       -6.427235
0.46                   0.9998745       -6.488039
0.464                  0.9998918       -6.548985
0.468                   0.999908       -6.610071
0.472                   0.999923       -6.671297
0.476                   0.999937       -6.732659
0.48                   0.9999494       -6.794155
0.484                  0.9999608       -6.855784
0.488                  0.9999707       -6.917543
0.492                  0.9999793       -6.979429
0.496                  0.9999862       -7.041439
0.5                     0.999992       -7.103571
0.504                  0.9999962       -7.165821
0.508                  0.9999988       -7.228188
0.512                          1       -7.290667
0.516                  0.9999995       -7.353257
0.52                   0.9999974       -7.415952
0.524                  0.9999938       -7.478749
0.528                  0.9999886       -7.541647
0.532                  0.9999816       -7.604642
0.536                  0.9999731       -7.667729
0.54                   0.9999631       -7.730905
0.544                  0.9999514       -7.794168
0.548                  0.9999381       -7.857515
0.552                   0.999923        -7.92094
0.556                  0.9999064        -7.98444
0.56                   0.9998883       -8.048014
0.564                  0.9998687       -8.111658
0.568                  0.9998475       -8.175368
0.572                  0.9998248       -8.239139
0.576                  0.9998008       -8.302971
0.58                   0.9997753        -8.36686
0.584                  0.9997483       -8.430801
0.588                  0.9997201       -8.494795
0.592                  0.9996904       -8.558838
0.596                  0.9996597       -8.622925
0.6                    0.9996276       -8.687056
0.604                  0.9995946       -8.751231
0.608                  0.9995604       -8.815443
0.612                  0.9995252       -8.879692
0.616                  0.9994892       -8.943977
0.62                   0.9994522       -9.008297
0.624                  0.9994144       -9.072649
0.628                   0.999376       -9.137032
0.632                  0.9993368       -9.201447
0.636                  0.9992971       -9.265891
0.64                    0.999257       -9.330366
0.644                  0.9992163        -9.39487
0.648                  0.9991754       -9.459402
0.652                  0.9991343       -9.523964
0.656                   0.999093       -9.588557
0.66                   0.9990516       -9.653181
0.664                  0.9990102       -9.717836
0.668                   0.998969       -9.782525
0.672                  0.9989281       -9.847248
0.676                  0.9988873       -9.912009
0.68                    0.998847       -9.976807
0.684                  0.9988071       -10.04165
0.688                  0.9987677       -10.10653
0.692                   0.998729       -10.17146
0.696                   0.998691       -10.23644
0.7                    0.9986537       -10.30148
0.704                  0.9986175       -10.36657
0.708                  0.9985821       -10.43172
0.712                  0.9985477       -10.49694
0.716                  0.9985146       -10.56223
0.72                   0.9984826       -10.62759
0.724                  0.9984519       -10.69303
0.728                  0.9984224       -10.75856
0.732                  0.9983944       -10.82417
0.736                  0.9983678       -10.88988
0.74                   0.9983427        -10.9557
0.744                  0.9983193       -11.02162
0.748                  0.9982974       -11.08766
0.752                  0.9982772       -11.15382
0.756                  0.9982586        -11.2201
0.76                   0.9982418       -11.28652
0.764                  0.9982267       -11.35308
0.768                  0.9982137       -11.41979
0.772                  0.9982022       -11.48665
0.776                  0.9981925       -11.55368
0.78                   0.9981849       -11.62087
0.784                   0.998179       -11.68825
0.788                  0.9981751       -11.75581
0.792                   0.998173       -11.82356
0.796                  0.9981728       -11.89151
0.8                    0.9981742       -11.95967
0.804                  0.9981776       -12.02805
0.808                  0.9981828       -12.09665
0.812                  0.9981897       -12.16548
0.816                  0.9981983       -12.23456
0.82                   0.9982086       -12.30387
0.824                  0.9982207       -12.37344
0.828                  0.9982343       -12.44328
0.832                  0.9982493       -12.51338
0.836                  0.9982659       -12.58376
0.84                   0.9982839       -12.65442
0.844                  0.9983031       -12.72538
0.848                  0.9983237       -12.79662
0.852                  0.9983453       -12.86818
0.856                  0.9983681       -12.94004
0.86                   0.9983919       -13.01222
0.864                  0.9984165       -13.08472
0.868                  0.9984419       -13.15755
0.872                   0.998468       -13.23071
0.876                  0.9984947       -13.30421
0.88                   0.9985219       -13.37805
0.884                  0.9985494       -13.45225
0.888                  0.9985771       -13.52679
0.892                   0.998605       -13.60169
0.896                  0.9986328       -13.67696
0.9                    0.9986606       -13.75258
0.904                   0.998688       -13.82858
0.908                  0.9987151       -13.90494
0.912                  0.9987416       -13.98168
0.916                  0.9987675       -14.05879
0.92                   0.9987926       -14.13627
0.924                  0.9988169       -14.21414
0.928                    0.99884       -14.29238
0.932                  0.9988619       -14.37101
0.936                  0.9988826       -14.45001
0.94                   0.9989019        -14.5294
0.944                  0.9989196       -14.60916
0.948                  0.9989355       -14.68931
0.952                  0.9989496       -14.76983
0.956                  0.9989619       -14.85073
0.96                    0.998972         -14.932
0.964                  0.9989799       -15.01365
0.968                  0.9989856       -15.09567
0.972                   0.998989       -15.17806
0.976                  0.9989897       -15.26082
0.98                   0.9989877       -15.34394
0.984                  0.9989832       -15.42741
0.988                  0.9989758       -15.51124
0.992                  0.9989655       -15.59543
0.996                  0.9989522       -15.67996
1                      0.9989359       -15.76483
1.004                  0.9989163       -15.85004
1.008                  0.9988936       -15.93559
1.012                  0.9988678       -16.02146
1.016                  0.9988385       -16.10766
1.02                   0.9988059       -16.19417
1.024                  0.9987699         -16.281
1.028                  0.9987303       -16.36813
1.032                  0.9986874       -16.45558
1.036                   0.998641       -16.54331
1.04                   0.9985911       -16.63131
1.044                  0.9985376       -16.71964
1.048                  0.9984807       -16.80821
1.052                  0.9984203       -16.89706
1.056                  0.9983564       -16.98621
1.06                   0.9982891       -17.07557
1.064                  0.9982184       -17.16521
1.068                  0.9981442        -17.2551
1.072                  0.9980668       -17.34525
1.076                   0.997986        -17.4356
1.08                   0.9979022       -17.52626
1.084                  0.9978151       -17.61707
1.088                   0.997725       -17.70815
1.092                  0.9976319       -17.79944
1.096                  0.9975358       -17.89096
1.1                    0.9974371       -17.98267
1.104                  0.9973356       -18.07461
1.108                  0.9972316       -18.16676
1.112                  0.9971251       -18.25911
1.116                  0.9970164       -18.35167
1.12                   0.9969053        -18.4444
1.124                  0.9967922       -18.53737
1.128                   0.996677       -18.63052
1.132                  0.9965602       -18.72387
1.136                  0.9964416       -18.81742
1.14                   0.9963216       -18.91117
1.144                  0.9962003       -19.00512
1.148                  0.9960776       -19.09928
1.152                  0.9959541       -19.19363
1.156                  0.9958296        -19.2882
1.16                   0.9957044       -19.38297
1.164                  0.9955786       -19.47796
1.168                  0.9954525       -19.57316
1.172                  0.9953261       -19.66859
1.176                  0.9951996       -19.76425
1.18                   0.9950733       -19.86014
1.184                  0.9949472       -19.95627
1.188                  0.9948214       -20.05265
1.192                  0.9946964       -20.14928
1.196                   0.994572       -20.24618
1.2                    0.9944484       -20.34335
1.204                   0.994326        -20.4408
1.208                  0.9942046       -20.53855
1.212                  0.9940847        -20.6366
1.216                  0.9939662       -20.73496
1.22                   0.9938493       -20.83365
1.224                  0.9937339       -20.93269
1.228                  0.9936205       -21.03207
1.232                  0.9935089       -21.13181
1.236                  0.9933994       -21.23194
1.24                   0.9932921       -21.33246
1.244                  0.9931868       -21.43339
1.248                  0.9930838       -21.53474
1.252                  0.9929832       -21.63653
1.256                   0.992885       -21.73877
1.26                   0.9927892       -21.84149
1.264                   0.992696        -21.9447
1.268                  0.9926053       -22.04841
1.272                  0.9925171       -22.15264
1.276                  0.9924313       -22.25742
1.28                   0.9923482       -22.36275
1.284                  0.9922676       -22.46865
1.288                  0.9921895       -22.57516
1.292                  0.9921136       -22.68227
1.296                  0.9920403       -22.79002
1.3                    0.9919694       -22.89842
1.304                  0.9919006       -23.00748
1.308                   0.991834       -23.11723
1.312                  0.9917695       -23.22769
1.316                   0.991707       -23.33887
1.32                   0.9916462        -23.4508
1.324                  0.9915872       -23.56348
1.328                  0.9915298       -23.67694
1.332                  0.9914736        -23.7912
1.336                  0.9914188       -23.90628
1.34                   0.9913649       -24.02219
1.344                   0.991312       -24.13894
1.348                  0.9912595       -24.25657
1.352                  0.9912076       -24.37507
1.356                  0.9911559       -24.49448
1.36                    0.991104       -24.61479
1.364                  0.9910521       -24.73604
1.368                  0.9909995       -24.85823
1.372                  0.9909462       -24.98139
1.376                  0.9908918       -25.10551
1.38                   0.9908361       -25.23062
1.384                  0.9907787       -25.35673
1.388                  0.9907195       -25.48385
1.392                   0.990658         -25.612
1.396                  0.9905941       -25.74118
1.4                    0.9905274        -25.8714
1.404                  0.9904575       -26.00268
1.408                  0.9903842       -26.13502
1.412                  0.9903072       -26.26844
1.416                   0.990226       -26.40292
1.42                   0.9901406       -26.53851
1.424                  0.9900505       -26.67518
1.428                  0.9899552       -26.81295
1.432                  0.9898548       -26.95183
1.436                  0.9897484       -27.09181
1.44                   0.9896364       -27.23291
1.444                  0.9895179       -27.37512
1.448                  0.9893927       -27.51845
1.452                  0.9892607       -27.66291
1.456                  0.9891214       -27.80848
1.46                   0.9889747       -27.95517
1.464                  0.9888201       -28.10299
1.468                  0.9886574       -28.25194
1.472                  0.9884864         -28.402
1.476                  0.9883068       -28.55318
1.48                    0.988118       -28.70547
1.484                  0.9879202       -28.85889
1.488                   0.987713       -29.01342
1.492                  0.9874962       -29.16905
1.496                  0.9872695       -29.32579
1.5                    0.9870325       -29.48363
1.504                  0.9867854       -29.64256
1.508                  0.9865279       -29.80259
1.512                  0.9862596        -29.9637
1.516                  0.9859805        -30.1259
1.52                   0.9856905       -30.28917
1.524                  0.9853893       -30.45351
1.528                   0.985077       -30.61892
1.532                  0.9847532       -30.78538
1.536                  0.9844181        -30.9529
1.54                   0.9840714       -31.12147
1.544                   0.983713       -31.29108
1.548                  0.9833432       -31.46173
1.552                  0.9829615       -31.63342
1.556                  0.9825683       -31.80613
1.56                   0.9821632       -31.97988
1.564                  0.9817466       -32.15463
1.568                  0.9813182       -32.33041
1.572                  0.9808782       -32.50721
1.576                  0.9804267       -32.68501
1.58                   0.9799634       -32.86383
1.584                  0.9794888       -33.04366
1.588                   0.979003       -33.22449
1.592                  0.9785058       -33.40633
1.596                  0.9779974       -33.58919
1.6                    0.9774781       -33.77305
1.604                  0.9769478       -33.95794
1.608                  0.9764067       -34.14385
1.612                  0.9758551       -34.33077
1.616                  0.9752933       -34.51873
1.62                   0.9747211       -34.70773
1.624                  0.9741388       -34.89778
1.628                  0.9735468       -35.08888
1.632                   0.972945       -35.28105
1.636                  0.9723338       -35.47429
1.64                   0.9717133       -35.66864
1.644                  0.9710837       -35.86409
1.648                  0.9704453       -36.06066
1.652                  0.9697983       -36.25838
1.656                   0.969143       -36.45725
1.66                   0.9684793       -36.65732
1.664                  0.9678078       -36.85858
1.668                  0.9671284       -37.06108
1.672                  0.9664414       -37.26482
1.676                  0.9657472       -37.46985
1.68                   0.9650456        -37.6762
1.684                  0.9643371       -37.88387
1.688                  0.9636217       -38.09293
1.692                  0.9628995        -38.3034
1.696                   0.962171        -38.5153
1.7                    0.9614359       -38.72868
1.704                  0.9606947       -38.94359
1.708                  0.9599471       -39.16005
1.712                  0.9591936       -39.37811
1.716                  0.9584342       -39.59781
1.72                   0.9576686       -39.81922
1.724                  0.9568972       -40.04235
1.728                  0.9561198       -40.26728
1.732                  0.9553365       -40.49404
1.736                  0.9545473       -40.72268
1.74                    0.953752       -40.95326
1.744                  0.9529504       -41.18586
1.748                  0.9521427       -41.42049
1.752                  0.9513287       -41.65723
1.756                  0.9505081       -41.89614
1.76                   0.9496807       -42.13728
1.764                  0.9488462       -42.38071
1.768                  0.9480045       -42.62648
1.772                  0.9471553       -42.87467
1.776                  0.9462979       -43.12535
1.78                   0.9454324       -43.37857
1.784                  0.9445581       -43.63439
1.788                  0.9436748        -43.8929
1.792                  0.9427818       -44.15415
1.796                  0.9418788       -44.41821
1.8                    0.9409649       -44.68515
1.804                  0.9400398       -44.95506
1.808                  0.9391028       -45.22799
1.812                  0.9381534         -45.504
1.816                  0.9371906       -45.78319
1.82                   0.9362139        -46.0656
1.824                  0.9352224       -46.35134
1.828                  0.9342153       -46.64044
1.832                  0.9331918       -46.93301
1.836                   0.932151        -47.2291
1.84                    0.931092       -47.52877
1.844                  0.9300137       -47.83212
1.848                  0.9289154        -48.1392
1.852                  0.9277959       -48.45009
1.856                  0.9266542       -48.76487
1.86                    0.925489       -49.08359
1.864                  0.9242993       -49.40634
1.868                  0.9230842       -49.73317
1.872                  0.9218423       -50.06416
1.876                  0.9205724       -50.39937
1.88                   0.9192729       -50.73889
1.884                  0.9179432       -51.08276
1.888                  0.9165816       -51.43105
1.892                   0.915187       -51.78384
1.896                  0.9137578       -52.14118
1.9                    0.9122928       -52.50314
1.904                  0.9107906       -52.86978
1.908                  0.9092498       -53.24117
1.912                  0.9076689       -53.61736
1.916                  0.9060467       -53.99841
1.92                   0.9043816       -54.38439
1.924                  0.9026722       -54.77534
1.928                  0.9009168       -55.17134
1.932                  0.8991143       -55.57242
1.936                  0.8972628       -55.97866
1.94                   0.8953612        -56.3901
1.944                  0.8934078        -56.8068
1.948                  0.8914012       -57.22881
1.952                  0.8893399       -57.65618
1.956                  0.8872223       -58.08896
1.96                   0.8850471        -58.5272
1.964                  0.8828126       -58.97096
1.968                  0.8805176       -59.42026
1.972                  0.8781605       -59.87518
1.976                  0.8757398       -60.33577
1.98                   0.8732542       -60.80204
1.984                  0.8707021       -61.27407
1.988                  0.8680824       -61.75188
1.992                  0.8653934       -62.23554
1.996                  0.8626338       -62.72509
2                      0.8598026       -63.22057
2.004                  0.8568981       -63.72202
2.008                  0.8539192        -64.2295
2.012                  0.8508646       -64.74304
2.016                  0.8477332        -65.2627
2.02                   0.8445236        -65.7885
2.024                  0.8412348       -66.32053
2.028                  0.8378657       -66.85879
2.032                   0.834415       -67.40336
2.036                  0.8308819       -67.95427
2.04                   0.8272655       -68.51157
2.044                  0.8235645       -69.07532
2.048                  0.8197782       -69.64558
2.052                  0.8159058       -70.22237
2.056                  0.8119463       -70.80578
2.06                   0.8078991       -71.39584
2.064                  0.8037635       -71.99261
2.068                  0.7995386       -72.59618
2.072                   0.795224       -73.20658
2.076                  0.7908192       -73.82386
2.08                   0.7863235       -74.44814
2.084                  0.7817366       -75.07946
2.088                  0.7770582       -75.71787
2.092                  0.7722878       -76.36349
2.096                  0.7674252       -77.01638
2.1                    0.7624702       -77.67662
2.104                  0.7574229        -78.3443
2.108                  0.7522829       -79.01953
2.112                  0.7470505       -79.70237
2.116                  0.7417256       -80.39295
2.12                   0.7363085       -81.09138
2.124                  0.7307992       -81.79775
2.128                  0.7251982       -82.51219
2.132                  0.7195059       -83.23485
2.136                  0.7137225       -83.96585
2.14                   0.7078488       -84.70528
2.144                  0.7018852       -85.45337
2.148                  0.6958325       -86.21022
2.152                  0.6896916       -86.97601
2.156                   0.683463       -87.75092
2.16                   0.6771479       -88.53513
2.164                  0.6707472       -89.32883
2.168                   0.664262       -90.13225
2.172                  0.6576936       -90.94559
2.176                  0.6510432       -91.76909
2.18                   0.6443122       -92.60298
2.184                  0.6375022       -93.44754
2.188                  0.6306145       -94.30302
2.192                  0.6236509       -95.16975
2.196                  0.6166132       -96.04802
2.2                    0.6095034       -96.93813
2.204                  0.6023232       -97.84047
2.208                  0.5950749       -98.75539
2.212                  0.5877606       -99.68329
2.216                  0.5803827       -100.6246
2.22                   0.5729436       -101.5797
2.224                  0.5654458       -102.5491
2.228                  0.5578921       -103.5333
2.232                  0.5502853       -104.5328
2.236                  0.5426282       -105.5482
2.24                   0.5349242       -106.5801
2.244                  0.5271762       -107.6291
2.248                   0.519388       -108.6958
2.252                  0.5115628        -109.781
2.256                  0.5037046       -110.8855
2.26                   0.4958171       -112.0099
2.264                  0.4879046       -113.1553
2.268                  0.4799714       -114.3224
2.272                  0.4720218       -115.5123
2.276                  0.4640607       -116.7258
2.28                    0.456093       -117.9643
2.284                  0.4481239       -119.2286
2.288                  0.4401589       -120.5202
2.292                  0.4322036       -121.8401
2.296                  0.4242642       -123.1899
2.3                     0.416347       -124.5709
2.304                  0.4084585       -125.9845
2.308                  0.4006058       -127.4325
2.312                  0.3927963       -128.9164
2.316                  0.3850377       -130.4379
2.32                   0.3773383        -131.999
2.324                  0.3697067       -133.6015
2.328                  0.3621518       -135.2473
2.332                  0.3546833       -136.9385
2.336                  0.3473113       -138.6771
2.34                   0.3400463       -140.4654
2.344                  0.3328996       -142.3055
2.348                  0.3258828       -144.1994
2.352                  0.3190083       -146.1495