! TOUCHSTONE file generated by CST MICROWAVE STUDIO
! Date and time: Thu May 12 15:28:08 2022
! Project name: AppElm_antenne_dipole_FR4.cst
! Parameters = {L=38.8; e=0.035; f=2.45e+09; h=1.6; i=0.8; l1=3.2; lambda=122.449; ls=30; wl=1.7; ws=80}
! Header version: 2018
! Port assignment regex: !\s*Touchstone port\s*([0-9]+)\s*=\s*(CST MWS port|CST DS port)\s*([0-9]+|Zmin|Zmax)\s*\(\"(.*)\"\)(\s*mode\s*([0-9]+))?.*
! Touchstone port assignment:
! Touchstone port 1 = CST MWS port 1 ("")
# GHz S MA R 50
0                      0.9990247              -0
0.004                  0.9990254     -0.04959471
0.008                  0.9990277     -0.09919487
0.012                  0.9990315      -0.1488059
0.016                  0.9990368      -0.1984332
0.02                   0.9990436      -0.2480822
0.024                  0.9990519      -0.2977582
0.028                  0.9990615      -0.3474663
0.032                  0.9990727      -0.3972117
0.036                  0.9990851      -0.4469996
0.04                    0.999099      -0.4968345
0.044                  0.9991141      -0.5467217
0.048                  0.9991305      -0.5966655
0.052                  0.9991481      -0.6466707
0.056                  0.9991668      -0.6967411
0.06                   0.9991867      -0.7468814
0.064                  0.9992075      -0.7970953
0.068                  0.9992292      -0.8473866
0.072                  0.9992519      -0.8977588
0.076                  0.9992755      -0.9482151
0.08                   0.9992997      -0.9987591
0.084                  0.9993246       -1.049393
0.088                  0.9993501        -1.10012
0.092                  0.9993761       -1.150942
0.096                  0.9994025       -1.201862
0.1                    0.9994294        -1.25288
0.104                  0.9994564          -1.304
0.108                  0.9994836       -1.355221
0.112                  0.9995109       -1.406546
0.116                  0.9995385       -1.457975
0.12                   0.9995657       -1.509508
0.124                  0.9995927       -1.561146
0.128                  0.9996196       -1.612889
0.132                  0.9996462       -1.664736
0.136                  0.9996723       -1.716687
0.14                   0.9996979       -1.768741
0.144                  0.9997229       -1.820897
0.148                  0.9997473       -1.873154
0.152                  0.9997711        -1.92551
0.156                   0.999794       -1.977962
0.16                   0.9998158       -2.030511
0.164                  0.9998369       -2.083152
0.168                  0.9998568       -2.135883
0.172                  0.9998758       -2.188702
0.176                  0.9998935       -2.241606
0.18                   0.9999101       -2.294591
0.184                  0.9999254       -2.347655
0.188                  0.9999393       -2.400793
0.192                  0.9999519       -2.454003
0.196                  0.9999631       -2.507281
0.2                    0.9999728       -2.560622
0.204                  0.9999812       -2.614023
0.208                  0.9999881       -2.667479
0.212                  0.9999934       -2.720987
0.216                   0.999997       -2.774543
0.22                   0.9999993        -2.82814
0.224                          1       -2.881777
0.228                   0.999999       -2.935447
0.232                  0.9999964       -2.989148
0.236                  0.9999923       -3.042874
0.24                   0.9999866       -3.096621
0.244                  0.9999793       -3.150384
0.248                  0.9999707        -3.20416
0.252                  0.9999603       -3.257944
0.256                  0.9999484       -3.311732
0.26                   0.9999353       -3.365519
0.264                  0.9999206       -3.419303
0.268                  0.9999047       -3.473079
0.272                  0.9998872       -3.526843
0.276                  0.9998686       -3.580593
0.28                   0.9998487       -3.634323
0.284                  0.9998278       -3.688031
0.288                  0.9998057       -3.741715
0.292                  0.9997825       -3.795372
0.296                  0.9997584       -3.848998
0.3                    0.9997331       -3.902592
0.304                  0.9997073       -3.956151
0.308                  0.9996806       -4.009673
0.312                  0.9996534       -4.063156
0.316                  0.9996255       -4.116599
0.32                    0.999597       -4.170002
0.324                  0.9995682       -4.223363
0.328                   0.999539       -4.276681
0.332                  0.9995093       -4.329957
0.336                  0.9994799       -4.383188
0.34                   0.9994502       -4.436377
0.344                  0.9994205       -4.489524
0.348                  0.9993909        -4.54263
0.352                  0.9993615       -4.595695
0.356                  0.9993325       -4.648721
0.36                   0.9993037       -4.701709
0.364                  0.9992754       -4.754663
0.368                  0.9992476       -4.807583
0.372                  0.9992206       -4.860472
0.376                  0.9991943       -4.913333
0.38                   0.9991687        -4.96617
0.384                  0.9991441       -5.018985
0.388                  0.9991203       -5.071781
0.392                  0.9990975       -5.124564
0.396                   0.999076       -5.177337
0.4                    0.9990555       -5.230104
0.404                  0.9990363        -5.28287
0.408                  0.9990183        -5.33564
0.412                  0.9990017       -5.388418
0.416                  0.9989866       -5.441208
0.42                   0.9989727       -5.494019
0.424                  0.9989605       -5.546854
0.428                  0.9989498       -5.599718
0.432                  0.9989406       -5.652618
0.436                   0.998933       -5.705559
0.44                    0.998927       -5.758548
0.444                  0.9989226       -5.811591
0.448                    0.99892       -5.864692
0.452                  0.9989189        -5.91786
0.456                  0.9989195       -5.971099
0.46                   0.9989219       -6.024416
0.464                  0.9989258       -6.077818
0.468                  0.9989315       -6.131311
0.472                  0.9989387         -6.1849
0.476                  0.9989475       -6.238592
0.48                   0.9989579       -6.292393
0.484                  0.9989698       -6.346309
0.488                  0.9989833       -6.400346
0.492                  0.9989982       -6.454508
0.496                  0.9990145       -6.508804
0.5                    0.9990322       -6.563239
0.504                  0.9990513       -6.617816
0.508                  0.9990716       -6.672541
0.512                   0.999093        -6.72742
0.516                  0.9991155       -6.782457
0.52                   0.9991391       -6.837658
0.524                  0.9991637       -6.893025
0.528                  0.9991892       -6.948565
0.532                  0.9992153        -7.00428
0.536                  0.9992423       -7.060173
0.54                   0.9992699       -7.116249
0.544                   0.999298       -7.172511
0.548                  0.9993266       -7.228961
0.552                  0.9993553       -7.285603
0.556                  0.9993844       -7.342439
0.56                   0.9994138       -7.399467
0.564                   0.999443       -7.456695
0.568                  0.9994722        -7.51412
0.572                  0.9995013       -7.571744
0.576                  0.9995301        -7.62957
0.58                   0.9995584       -7.687595
0.584                  0.9995864        -7.74582
0.588                  0.9996137       -7.804247
0.592                  0.9996405       -7.862872
0.596                  0.9996663       -7.921698
0.6                    0.9996914       -7.980719
0.604                  0.9997154       -8.039938
0.608                  0.9997386       -8.099351
0.612                  0.9997604       -8.158959
0.616                  0.9997811       -8.218754
0.62                   0.9998002       -8.278741
0.624                  0.9998183       -8.338909
0.628                  0.9998345       -8.399262
0.632                  0.9998494       -8.459792
0.636                  0.9998627       -8.520498
0.64                   0.9998743       -8.581373
0.644                   0.999884       -8.642418
0.648                  0.9998919       -8.703626
0.652                  0.9998979       -8.764993
0.656                  0.9999021       -8.826515
0.66                   0.9999044       -8.888186
0.664                  0.9999045       -8.950003
0.668                  0.9999027       -9.011959
0.672                  0.9998989       -9.074051
0.676                  0.9998929       -9.136275
0.68                   0.9998849       -9.198621
0.684                  0.9998747       -9.261092
0.688                  0.9998626       -9.323675
0.692                  0.9998481       -9.386368
0.696                  0.9998318       -9.449168
0.7                    0.9998134       -9.512065
0.704                  0.9997927       -9.575059
0.708                  0.9997702       -9.638143
0.712                  0.9997457       -9.701312
0.716                  0.9997191        -9.76456
0.72                   0.9996907       -9.827886
0.724                  0.9996605       -9.891281
0.728                  0.9996283       -9.954745
0.732                  0.9995945       -10.01827
0.736                  0.9995589       -10.08186
0.74                   0.9995219        -10.1455
0.744                  0.9994832       -10.20919
0.748                  0.9994432       -10.27293
0.752                  0.9994017       -10.33671
0.756                  0.9993589       -10.40054
0.76                    0.999315       -10.46441
0.764                  0.9992699       -10.52832
0.768                  0.9992239       -10.59226
0.772                   0.999177       -10.65624
0.776                  0.9991292       -10.72025
0.78                   0.9990809        -10.7843
0.784                  0.9990318       -10.84838
0.788                  0.9989824       -10.91249
0.792                  0.9989326       -10.97663
0.796                  0.9988826       -11.04081
0.8                    0.9988325       -11.10502
0.804                  0.9987823       -11.16927
0.808                  0.9987322       -11.23356
0.812                  0.9986824       -11.29788
0.816                  0.9986329       -11.36225
0.82                    0.998584       -11.42666
0.824                  0.9985355       -11.49113
0.828                  0.9984877       -11.55564
0.832                  0.9984407       -11.62021
0.836                  0.9983945       -11.68485
0.84                   0.9983494       -11.74955
0.844                  0.9983053       -11.81432
0.848                  0.9982624       -11.87917
0.852                  0.9982208       -11.94409
0.856                  0.9981805       -12.00911
0.86                   0.9981418       -12.07423
0.864                  0.9981046       -12.13944
0.868                  0.9980689       -12.20477
0.872                  0.9980348       -12.27021
0.876                  0.9980027       -12.33577
0.88                   0.9979721       -12.40147
0.884                  0.9979435       -12.46731
0.888                  0.9979168       -12.53329
0.892                   0.997892       -12.59943
0.896                  0.9978692       -12.66574
0.9                    0.9978483       -12.73222
0.904                  0.9978294       -12.79889
0.908                  0.9978126       -12.86575
0.912                  0.9977979       -12.93281
0.916                  0.9977851       -13.00008
0.92                   0.9977744       -13.06757
0.924                  0.9977656       -13.13528
0.928                  0.9977589       -13.20324
0.932                  0.9977541       -13.27144
0.936                  0.9977512       -13.33991
0.94                   0.9977502       -13.40863
0.944                   0.997751       -13.47763
0.948                  0.9977536       -13.54692
0.952                  0.9977577        -13.6165
0.956                  0.9977636       -13.68637
0.96                   0.9977709       -13.75656
0.964                  0.9977798       -13.82707
0.968                    0.99779        -13.8979
0.972                  0.9978014       -13.96907
0.976                  0.9978141       -14.04057
0.98                   0.9978277       -14.11243
0.984                  0.9978423       -14.18464
0.988                  0.9978578       -14.25721
0.992                  0.9978739       -14.33015
0.996                  0.9978904       -14.40346
1                      0.9979076       -14.47716
1.004                  0.9979249       -14.55124
1.008                  0.9979425       -14.62571
1.012                  0.9979601       -14.70057
1.016                  0.9979774       -14.77584
1.02                   0.9979945        -14.8515
1.024                  0.9980111       -14.92757
1.028                  0.9980271       -15.00405
1.032                  0.9980425       -15.08094
1.036                  0.9980569       -15.15823
1.04                   0.9980703       -15.23596
1.044                  0.9980825       -15.31409
1.048                  0.9980933       -15.39264
1.052                  0.9981026       -15.47162
1.056                  0.9981102       -15.55099
1.06                    0.998116       -15.63079
1.064                  0.9981198       -15.71101
1.068                  0.9981216       -15.79163
1.072                  0.9981211       -15.87269
1.076                  0.9981183       -15.95414
1.08                    0.998113       -16.03599
1.084                  0.9981049       -16.11822
1.088                  0.9980942        -16.2009
1.092                  0.9980805       -16.28392
1.096                  0.9980639       -16.36739
1.1                    0.9980442       -16.45124
1.104                  0.9980213       -16.53547
1.108                  0.9979951       -16.62005
1.112                  0.9979655       -16.70502
1.116                  0.9979325       -16.79037
1.12                   0.9978959       -16.87607
1.124                  0.9978557       -16.96214
1.128                  0.9978119       -17.04856
1.132                  0.9977643       -17.13532
1.136                   0.997713       -17.22242
1.14                   0.9976581       -17.30985
1.144                  0.9975993       -17.39761
1.148                  0.9975365        -17.4857
1.152                    0.99747       -17.57409
1.156                  0.9973997        -17.6628
1.16                   0.9973255       -17.75181
1.164                  0.9972477       -17.84111
1.168                  0.9971658       -17.93071
1.172                  0.9970805       -18.02058
1.176                  0.9969914       -18.11074
1.18                   0.9968987       -18.20117
1.184                  0.9968023       -18.29186
1.188                  0.9967024       -18.38282
1.192                  0.9965991       -18.47404
1.196                  0.9964925        -18.5655
1.2                    0.9963826       -18.65722
1.204                  0.9962696       -18.74918
1.208                  0.9961535       -18.84138
1.212                  0.9960345       -18.93382
1.216                  0.9959127        -19.0265
1.22                   0.9957883        -19.1194
1.224                  0.9956612       -19.21255
1.228                  0.9955318       -19.30591
1.232                     0.9954       -19.39951
1.236                  0.9952661       -19.49334
1.24                   0.9951303        -19.5874
1.244                  0.9949926       -19.68169
1.248                  0.9948534       -19.77621
1.252                  0.9947126       -19.87096
1.256                  0.9945704       -19.96595
1.26                   0.9944271       -20.06118
1.264                  0.9942828       -20.15665
1.268                  0.9941376       -20.25237
1.272                  0.9939918       -20.34835
1.276                  0.9938455       -20.44458
1.28                   0.9936988       -20.54108
1.284                  0.9935519       -20.63786
1.288                  0.9934051       -20.73491
1.292                  0.9932583       -20.83225
1.296                  0.9931118       -20.92989
1.3                    0.9929658       -21.02783
1.304                  0.9928204        -21.1261
1.308                  0.9926757       -21.22469
1.312                  0.9925317       -21.32362
1.316                  0.9923888       -21.42291
1.32                   0.9922471       -21.52256
1.324                  0.9921065       -21.62258
1.328                  0.9919674         -21.723
1.332                  0.9918296       -21.82383
1.336                  0.9916933       -21.92508
1.34                   0.9915586       -22.02676
1.344                  0.9914256       -22.12889
1.348                  0.9912944        -22.2315
1.352                  0.9911649       -22.33458
1.356                  0.9910372       -22.43818
1.36                   0.9909114       -22.54228
1.364                  0.9907874       -22.64693
1.368                  0.9906654       -22.75212
1.372                  0.9905453        -22.8579
1.376                  0.9904269       -22.96426
1.38                   0.9903104       -23.07123
1.384                  0.9901957       -23.17883
1.388                  0.9900827       -23.28708
1.392                  0.9899715       -23.39599
1.396                  0.9898617       -23.50559
1.4                    0.9897535        -23.6159
1.404                  0.9896466       -23.72693
1.408                  0.9895411       -23.83869
1.412                  0.9894366       -23.95122
1.416                  0.9893332       -24.06453
1.42                   0.9892306       -24.17864
1.424                  0.9891286       -24.29356
1.428                  0.9890272       -24.40931
1.432                   0.988926       -24.52593
1.436                   0.988825        -24.6434
1.44                   0.9887238       -24.76177
1.444                  0.9886223       -24.88104
1.448                  0.9885203       -25.00122
1.452                  0.9884174       -25.12235
1.456                  0.9883135       -25.24442
1.46                   0.9882082       -25.36747
1.464                  0.9881014       -25.49148
1.468                  0.9879926        -25.6165
1.472                  0.9878817       -25.74252
1.476                  0.9877683       -25.86957
1.48                   0.9876521       -25.99764
1.484                  0.9875331       -26.12676
1.488                  0.9874104       -26.25694
1.492                  0.9872843       -26.38819
1.496                   0.987154       -26.52051
1.5                    0.9870195        -26.6539
1.504                  0.9868803        -26.7884
1.508                  0.9867361         -26.924
1.512                  0.9865866        -27.0607
1.516                  0.9864315       -27.19852
1.52                   0.9862704       -27.33746
1.524                  0.9861031       -27.47752
1.528                  0.9859291       -27.61871
1.532                  0.9857482       -27.76104
1.536                  0.9855602        -27.9045
1.54                   0.9853646        -28.0491
1.544                  0.9851611       -28.19484
1.548                  0.9849494       -28.34172
1.552                  0.9847294       -28.48974
1.556                  0.9845005       -28.63891
1.56                   0.9842626       -28.78921
1.564                  0.9840153       -28.94066
1.568                  0.9837586       -29.09325
1.572                  0.9834922       -29.24697
1.576                  0.9832155       -29.40184
1.58                   0.9829286       -29.55783
1.584                  0.9826311       -29.71496
1.588                  0.9823229       -29.87321
1.592                  0.9820038       -30.03258
1.596                  0.9816735       -30.19308
1.6                    0.9813318       -30.35469
1.604                  0.9809787       -30.51741
1.608                  0.9806139       -30.68124
1.612                  0.9802373       -30.84618
1.616                   0.979849       -31.01221
1.62                   0.9794485       -31.17934
1.624                  0.9790358       -31.34757
1.628                  0.9786111       -31.51688
1.632                   0.978174       -31.68728
1.636                  0.9777245       -31.85875
1.64                   0.9772627       -32.03131
1.644                  0.9767885       -32.20494
1.648                  0.9763019       -32.37964
1.652                  0.9758027       -32.55542
1.656                  0.9752912       -32.73227
1.66                   0.9747672       -32.91019
1.664                  0.9742308       -33.08919
1.668                  0.9736823       -33.26925
1.672                  0.9731213       -33.45038
1.676                  0.9725482       -33.63259
1.68                   0.9719629       -33.81588
1.684                  0.9713656       -34.00025
1.688                  0.9707564       -34.18571
1.692                  0.9701353       -34.37226
1.696                  0.9695026       -34.55991
1.7                    0.9688582       -34.74867
1.704                  0.9682023       -34.93855
1.708                  0.9675351       -35.12955
1.712                  0.9668567       -35.32171
1.716                  0.9661672       -35.51501
1.72                   0.9654669       -35.70948
1.724                  0.9647558       -35.90514
1.728                  0.9640341       -36.10199
1.732                  0.9633018       -36.30007
1.736                  0.9625592       -36.49938
1.74                   0.9618064       -36.69996
1.744                  0.9610436       -36.90182
1.748                   0.960271       -37.10499
1.752                  0.9594884        -37.3095
1.756                  0.9586963       -37.51537
1.76                   0.9578945       -37.72262
1.764                  0.9570834        -37.9313
1.768                  0.9562627       -38.14144
1.772                  0.9554329       -38.35306
1.776                  0.9545938        -38.5662
1.78                   0.9537455       -38.78091
1.784                   0.952888       -38.99721
1.788                  0.9520216       -39.21515
1.792                  0.9511459       -39.43478
1.796                  0.9502611       -39.65612
1.8                    0.9493672       -39.87924
1.804                  0.9484639       -40.10416
1.808                  0.9475515       -40.33095
1.812                  0.9466293       -40.55965
1.816                  0.9456978       -40.79031
1.82                   0.9447566       -41.02297
1.824                  0.9438052       -41.25771
1.828                  0.9428438       -41.49457
1.832                   0.941872        -41.7336
1.836                  0.9408896       -41.97485
1.84                   0.9398962        -42.2184
1.844                  0.9388915       -42.46429
1.848                  0.9378752       -42.71258
1.852                  0.9368467       -42.96335
1.856                  0.9358058       -43.21664
1.86                   0.9347518       -43.47252
1.864                  0.9336844       -43.73106
1.868                  0.9326031        -43.9923
1.872                  0.9315071       -44.25633
1.876                  0.9303959        -44.5232
1.88                   0.9292688       -44.79299
1.884                  0.9281254       -45.06574
1.888                  0.9269646       -45.34154
1.892                   0.925786       -45.62044
1.896                  0.9245885       -45.90251
1.9                    0.9233715       -46.18782
1.904                  0.9221341       -46.47644
1.908                  0.9208754       -46.76843
1.912                  0.9195946       -47.06385
1.916                  0.9182904       -47.36278
1.92                   0.9169622       -47.66528
1.924                  0.9156087        -47.9714
1.928                  0.9142291       -48.28122
1.932                  0.9128222       -48.59482
1.936                  0.9113869       -48.91223
1.94                    0.909922       -49.23354
1.944                  0.9084264       -49.55881
1.948                  0.9068989       -49.88808
1.952                  0.9053383       -50.22143
1.956                  0.9037433       -50.55893
1.96                   0.9021128       -50.90061
1.964                  0.9004451       -51.24656
1.968                  0.8987396       -51.59682
1.972                  0.8969941       -51.95146
1.976                  0.8952079       -52.31052
1.98                   0.8933796       -52.67407
1.984                  0.8915075       -53.04216
1.988                  0.8895904       -53.41486
1.992                   0.887627        -53.7922
1.996                  0.8856157       -54.17423
2                      0.8835552       -54.56101
2.004                   0.881444       -54.95259
2.008                  0.8792808       -55.34903
2.012                   0.877064       -55.75036
2.016                  0.8747922       -56.15664
2.02                   0.8724642       -56.56791
2.024                  0.8700783       -56.98422
2.028                  0.8676332        -57.4056
2.032                  0.8651275       -57.83212
2.036                  0.8625597       -58.26379
2.04                   0.8599285       -58.70069
2.044                  0.8572325       -59.14283
2.048                  0.8544703       -59.59026
2.052                  0.8516406       -60.04303
2.056                   0.848742       -60.50117
2.06                   0.8457732       -60.96472
2.064                  0.8427329       -61.43372
2.068                  0.8396198       -61.90822
2.072                  0.8364327       -62.38824
2.076                  0.8331704       -62.87381
2.08                   0.8298316       -63.36501
2.084                  0.8264153       -63.86184
2.088                  0.8229202       -64.36435
2.092                  0.8193453       -64.87258
2.096                  0.8156895       -65.38657
2.1                    0.8119518       -65.90635
2.104                  0.8081312       -66.43197
2.108                  0.8042267       -66.96347
2.112                  0.8002375       -67.50088
2.116                  0.7961627       -68.04427
2.12                   0.7920014       -68.59364
2.124                   0.787753       -69.14906
2.128                  0.7834166       -69.71059
2.132                  0.7789916       -70.27826
2.136                  0.7744773       -70.85213
2.14                   0.7698733       -71.43223
2.144                  0.7651789       -72.01862
2.148                  0.7603938       -72.61137
2.152                  0.7555174       -73.21054
2.156                  0.7505494       -73.81618
2.16                   0.7454898       -74.42836
2.164                  0.7403379       -75.04712
2.168                  0.7350938       -75.67258
2.172                  0.7297573       -76.30481
2.176                  0.7243284       -76.94384
2.18                   0.7188071       -77.58978
2.184                  0.7131934       -78.24274
2.188                  0.7074877       -78.90279
2.192                  0.7016898       -79.57005
2.196                  0.6958003       -80.24459
2.2                    0.6898195       -80.92655
2.204                  0.6837477       -81.61604
2.208                  0.6775855       -82.31319
2.212                  0.6713334       -83.01814
2.216                   0.664992         -83.731
2.22                   0.6585621       -84.45196
2.224                  0.6520445       -85.18116
2.228                    0.64544       -85.91876
2.232                  0.6387495       -86.66497
2.236                   0.631974       -87.41996
2.24                   0.6251148       -88.18394
2.244                  0.6181728       -88.95713
2.248                  0.6111496       -89.73979
2.252                  0.6040462       -90.53212
2.256                  0.5968643       -91.33441
2.26                   0.5896053       -92.14694
2.264                  0.5822707       -92.97003
2.268                  0.5748624       -93.80397
2.272                  0.5673822       -94.64914
2.276                  0.5598319       -95.50589
2.28                   0.5522134       -96.37458
2.284                  0.5445291        -97.2557
2.288                  0.5367808       -98.14964
2.292                  0.5289712        -99.0569
2.296                  0.5211024       -99.97802
2.3                    0.5131773       -100.9135
2.304                  0.5051982        -101.864
2.308                   0.497168         -102.83
2.312                  0.4890898       -103.8124
2.316                  0.4809665       -104.8118
2.32                   0.4728012       -105.8289
2.324                  0.4645975       -106.8647
2.328                  0.4563587       -107.9201
2.332                  0.4480887       -108.9959
2.336                  0.4397912       -110.0932
2.34                   0.4314704       -111.2133
2.344                  0.4231305       -112.3571
2.348                   0.414776       -113.5261
2.352                  0.4064116       -114.7217