! TOUCHSTONE file generated by CST MICROWAVE STUDIO
! Date and time: Thu May 12 15:28:09 2022
! Project name: AppElm_antenne_dipole_FR4.cst
! Parameters = {L=38.8; e=0.035; f=2.45e+09; h=1.6; i=0.8; l1=3.4; lambda=122.449; ls=30; wl=1.7; ws=80}
! Header version: 2018
! Port assignment regex: !\s*Touchstone port\s*([0-9]+)\s*=\s*(CST MWS port|CST DS port)\s*([0-9]+|Zmin|Zmax)\s*\(\"(.*)\"\)(\s*mode\s*([0-9]+))?.*
! Touchstone port assignment:
! Touchstone port 1 = CST MWS port 1 ("")
# GHz S MA R 50
0                       0.999297              -0
0.004                  0.9992976     -0.05081614
0.008                  0.9992993      -0.1016367
0.012                  0.9993022       -0.152466
0.016                  0.9993062      -0.2033084
0.02                   0.9993114      -0.2541682
0.024                  0.9993177      -0.3050498
0.028                  0.9993251      -0.3559572
0.032                  0.9993335      -0.4068947
0.036                   0.999343      -0.4578663
0.04                   0.9993535       -0.508876
0.044                  0.9993649      -0.5599275
0.048                  0.9993774      -0.6110247
0.052                  0.9993907      -0.6621711
0.056                  0.9994049      -0.7133703
0.06                   0.9994198      -0.7646256
0.064                  0.9994355      -0.8159401
0.068                  0.9994519      -0.8673168
0.072                   0.999469      -0.9187587
0.076                  0.9994867      -0.9702683
0.08                   0.9995049       -1.021848
0.084                  0.9995236       -1.073501
0.088                  0.9995428       -1.125228
0.092                  0.9995624       -1.177031
0.096                  0.9995821       -1.228913
0.1                    0.9996021       -1.280874
0.104                  0.9996222       -1.332917
0.108                  0.9996424       -1.385042
0.112                  0.9996627       -1.437249
0.116                  0.9996829        -1.48954
0.12                   0.9997031       -1.541915
0.124                  0.9997232       -1.594374
0.128                  0.9997428       -1.646917
0.132                  0.9997622       -1.699544
0.136                  0.9997813       -1.752254
0.14                   0.9997999       -1.805047
0.144                   0.999818       -1.857922
0.148                  0.9998355       -1.910878
0.152                  0.9998524       -1.963913
0.156                  0.9998687       -2.017026
0.16                   0.9998843       -2.070216
0.164                  0.9998991       -2.123481
0.168                  0.9999129       -2.176818
0.172                  0.9999259       -2.230226
0.176                   0.999938       -2.283701
0.18                   0.9999491       -2.337243
0.184                  0.9999592       -2.390848
0.188                  0.9999683       -2.444514
0.192                  0.9999762       -2.498237
0.196                   0.999983       -2.552015
0.2                    0.9999888       -2.605845
0.204                  0.9999934       -2.659723
0.208                  0.9999968       -2.713648
0.212                  0.9999989       -2.767615
0.216                          1        -2.82162
0.22                   0.9999997       -2.875661
0.224                  0.9999982       -2.929735
0.228                  0.9999956       -2.983838
0.232                  0.9999916       -3.037967
0.236                  0.9999864       -3.092119
0.24                   0.9999802       -3.146289
0.244                  0.9999728       -3.200475
0.248                  0.9999641       -3.254675
0.252                  0.9999542       -3.308884
0.256                  0.9999435       -3.363099
0.26                   0.9999315       -3.417319
0.264                  0.9999185       -3.471539
0.268                  0.9999045       -3.525758
0.272                  0.9998896       -3.579971
0.276                  0.9998735       -3.634178
0.28                   0.9998568       -3.688375
0.284                  0.9998391       -3.742562
0.288                  0.9998208       -3.796734
0.292                  0.9998017       -3.850891
0.296                  0.9997818       -3.905031
0.3                    0.9997614       -3.959153
0.304                  0.9997406       -4.013254
0.308                  0.9997191       -4.067336
0.312                  0.9996972       -4.121395
0.316                  0.9996751       -4.175432
0.32                   0.9996527       -4.229447
0.324                  0.9996301       -4.283438
0.328                  0.9996073       -4.337406
0.332                  0.9995844       -4.391353
0.336                  0.9995617       -4.445276
0.34                   0.9995389       -4.499178
0.344                  0.9995164        -4.55306
0.348                  0.9994939       -4.606923
0.352                  0.9994719       -4.660768
0.356                  0.9994502       -4.714597
0.36                   0.9994288       -4.768412
0.364                  0.9994081       -4.822215
0.368                  0.9993879       -4.876008
0.372                  0.9993684       -4.929794
0.376                  0.9993495       -4.983576
0.38                   0.9993314       -5.037357
0.384                  0.9993141        -5.09114
0.388                  0.9992976       -5.144929
0.392                  0.9992822       -5.198727
0.396                  0.9992677       -5.252537
0.4                    0.9992542       -5.306365
0.404                  0.9992419       -5.360214
0.408                  0.9992306       -5.414087
0.412                  0.9992205       -5.467991
0.416                  0.9992114       -5.521929
0.42                   0.9992038       -5.575907
0.424                  0.9991973       -5.629929
0.428                  0.9991921       -5.683998
0.432                  0.9991881       -5.738122
0.436                  0.9991855       -5.792305
0.44                   0.9991841       -5.846553
0.444                  0.9991843       -5.900868
0.448                  0.9991856       -5.955259
0.452                  0.9991883       -6.009729
0.456                  0.9991923       -6.064283
0.46                   0.9991975       -6.118929
0.464                   0.999204       -6.173669
0.468                  0.9992119       -6.228509
0.472                   0.999221       -6.283455
0.476                  0.9992313       -6.338512
0.48                   0.9992427       -6.393684
0.484                  0.9992553       -6.448975
0.488                   0.999269       -6.504394
0.492                  0.9992839        -6.55994
0.496                  0.9992996       -6.615621
0.5                    0.9993165       -6.671442
0.504                  0.9993341       -6.727405
0.508                  0.9993525       -6.783515
0.512                  0.9993719       -6.839775
0.516                  0.9993919       -6.896189
0.52                   0.9994125       -6.952763
0.524                  0.9994338       -7.009496
0.528                  0.9994554       -7.066395
0.532                  0.9994777       -7.123461
0.536                  0.9995002       -7.180696
0.54                    0.999523       -7.238103
0.544                   0.999546       -7.295684
0.548                  0.9995691       -7.353442
0.552                  0.9995921       -7.411377
0.556                  0.9996152        -7.46949
0.56                   0.9996381       -7.527785
0.564                  0.9996608        -7.58626
0.568                  0.9996832       -7.644917
0.572                  0.9997053       -7.703756
0.576                  0.9997268       -7.762777
0.58                   0.9997476        -7.82198
0.584                   0.999768       -7.881365
0.588                  0.9997875        -7.94093
0.592                  0.9998062       -8.000674
0.596                  0.9998241       -8.060597
0.6                    0.9998409       -8.120697
0.604                  0.9998567       -8.180973
0.608                  0.9998715       -8.241421
0.612                   0.999885        -8.30204
0.616                  0.9998973        -8.36283
0.62                   0.9999082       -8.423784
0.624                  0.9999178       -8.484903
0.628                   0.999926       -8.546182
0.632                  0.9999326       -8.607619
0.636                  0.9999377       -8.669209
0.64                   0.9999413       -8.730952
0.644                  0.9999432       -8.792839
0.648                  0.9999436       -8.854872
0.652                  0.9999421       -8.917043
0.656                  0.9999391        -8.97935
0.66                   0.9999342       -9.041788
0.664                  0.9999274       -9.104355
0.668                  0.9999191       -9.167046
0.672                  0.9999091       -9.229856
0.676                  0.9998971        -9.29278
0.68                   0.9998834       -9.355816
0.684                  0.9998679        -9.41896
0.688                  0.9998508       -9.482206
0.692                  0.9998317       -9.545549
0.696                   0.999811        -9.60899
0.7                    0.9997887        -9.67252
0.704                  0.9997648       -9.736134
0.708                  0.9997392       -9.799836
0.712                  0.9997118       -9.863616
0.716                  0.9996832        -9.92747
0.72                   0.9996529         -9.9914
0.724                  0.9996213        -10.0554
0.728                  0.9995883       -10.11946
0.732                  0.9995541       -10.18359
0.736                  0.9995186       -10.24778
0.74                   0.9994818       -10.31203
0.744                  0.9994441       -10.37633
0.748                  0.9994054       -10.44069
0.752                  0.9993658       -10.50511
0.756                  0.9993253       -10.56957
0.76                    0.999284       -10.63409
0.764                  0.9992422       -10.69865
0.768                  0.9991997       -10.76327
0.772                  0.9991568       -10.82794
0.776                  0.9991136       -10.89265
0.78                     0.99907       -10.95742
0.784                  0.9990262       -11.02224
0.788                  0.9989825       -11.08711
0.792                  0.9989387       -11.15203
0.796                  0.9988951       -11.21701
0.8                    0.9988516       -11.28205
0.804                  0.9988085       -11.34715
0.808                  0.9987658       -11.41232
0.812                  0.9987237       -11.47754
0.816                  0.9986821       -11.54284
0.82                   0.9986412       -11.60822
0.824                  0.9986011       -11.67367
0.828                  0.9985619        -11.7392
0.832                  0.9985237       -11.80482
0.836                  0.9984866       -11.87054
0.84                   0.9984505       -11.93635
0.844                  0.9984157       -12.00226
0.848                  0.9983821       -12.06829
0.852                  0.9983499       -12.13443
0.856                   0.998319       -12.20069
0.86                   0.9982896       -12.26709
0.864                  0.9982617       -12.33362
0.868                  0.9982356       -12.40029
0.872                  0.9982109       -12.46711
0.876                  0.9981878       -12.53409
0.88                   0.9981665       -12.60124
0.884                  0.9981469       -12.66856
0.888                   0.998129       -12.73606
0.892                  0.9981128       -12.80375
0.896                  0.9980984       -12.87164
0.9                    0.9980857       -12.93974
0.904                  0.9980749       -13.00805
0.908                  0.9980657       -13.07659
0.912                  0.9980583       -13.14535
0.916                  0.9980525       -13.21436
0.92                   0.9980484       -13.28362
0.924                  0.9980459       -13.35313
0.928                  0.9980451        -13.4229
0.932                  0.9980458       -13.49295
0.936                  0.9980479       -13.56328
0.94                   0.9980515       -13.63391
0.944                  0.9980563       -13.70482
0.948                  0.9980625       -13.77605
0.952                    0.99807       -13.84758
0.956                  0.9980785       -13.91943
0.96                    0.998088       -13.99161
0.964                  0.9980985       -14.06412
0.968                  0.9981097       -14.13698
0.972                  0.9981217       -14.21018
0.976                  0.9981344       -14.28373
0.98                   0.9981474       -14.35764
0.984                  0.9981609       -14.43191
0.988                  0.9981747       -14.50655
0.992                  0.9981885       -14.58157
0.996                  0.9982024       -14.65696
1                      0.9982161       -14.73273
1.004                  0.9982297       -14.80889
1.008                  0.9982428       -14.88544
1.012                  0.9982553       -14.96238
1.016                  0.9982671       -15.03971
1.02                   0.9982782       -15.11744
1.024                  0.9982883       -15.19557
1.028                  0.9982974        -15.2741
1.032                  0.9983052       -15.35303
1.036                  0.9983116       -15.43236
1.04                   0.9983165       -15.51209
1.044                  0.9983198       -15.59222
1.048                  0.9983213       -15.67276
1.052                  0.9983209       -15.75374
1.056                  0.9983185       -15.83505
1.06                    0.998314       -15.91679
1.064                  0.9983071       -15.99891
1.068                  0.9982978       -16.08142
1.072                  0.9982859       -16.16434
1.076                  0.9982715       -16.24764
1.08                   0.9982543       -16.33133
1.084                  0.9982343       -16.41542
1.088                  0.9982115       -16.49984
1.092                  0.9981855       -16.58465
1.096                  0.9981565       -16.66983
1.1                    0.9981242        -16.7554
1.104                  0.9980888       -16.84132
1.108                    0.99805       -16.92758
1.112                   0.998008       -17.01418
1.116                  0.9979624       -17.10114
1.12                   0.9979134       -17.18846
1.124                  0.9978608       -17.27605
1.128                  0.9978047       -17.36402
1.132                  0.9977452        -17.4523
1.136                   0.997682        -17.5409
1.14                   0.9976154       -17.62981
1.144                  0.9975452       -17.71903
1.148                  0.9974715       -17.80854
1.152                  0.9973942       -17.89835
1.156                  0.9973135       -17.98845
1.16                   0.9972294       -18.07884
1.164                  0.9971418        -18.1695
1.168                  0.9970507       -18.26044
1.172                  0.9969565       -18.35165
1.176                  0.9968591       -18.44313
1.18                   0.9967585       -18.53487
1.184                  0.9966549       -18.62686
1.188                  0.9965483       -18.71912
1.192                  0.9964387       -18.81162
1.196                  0.9963265       -18.90437
1.2                    0.9962116       -18.99737
1.204                   0.996094       -19.09062
1.208                  0.9959742        -19.1841
1.212                  0.9958519       -19.27783
1.216                  0.9957275        -19.3718
1.22                   0.9956011       -19.46601
1.224                  0.9954727       -19.56047
1.228                  0.9953428       -19.65516
1.232                  0.9952111        -19.7501
1.236                  0.9950779       -19.84529
1.24                   0.9949434       -19.94072
1.244                  0.9948077       -20.03641
1.248                  0.9946711       -20.13235
1.252                  0.9945337       -20.22855
1.256                  0.9943955       -20.32502
1.26                   0.9942568       -20.42176
1.264                  0.9941176       -20.51877
1.268                  0.9939783       -20.61606
1.272                  0.9938388       -20.71365
1.276                  0.9936995       -20.81153
1.28                   0.9935603       -20.90972
1.284                  0.9934215       -21.00822
1.288                  0.9932831       -21.10706
1.292                  0.9931453       -21.20623
1.296                  0.9930083       -21.30574
1.3                    0.9928722       -21.40561
1.304                  0.9927371       -21.50585
1.308                   0.992603       -21.60648
1.312                  0.9924703        -21.7075
1.316                  0.9923387       -21.80893
1.32                   0.9922085       -21.91078
1.324                  0.9920798       -22.01307
1.328                  0.9919527       -22.11582
1.332                  0.9918271       -22.21903
1.336                  0.9917032       -22.32273
1.34                   0.9915809       -22.42693
1.344                  0.9914603       -22.53165
1.348                  0.9913415        -22.6369
1.352                  0.9912244        -22.7427
1.356                   0.991109       -22.84907
1.36                   0.9909954       -22.95603
1.364                  0.9908836       -23.06359
1.368                  0.9907734       -23.17178
1.372                  0.9906647       -23.28061
1.376                  0.9905577       -23.39009
1.38                   0.9904521       -23.50025
1.384                   0.990348       -23.61111
1.388                  0.9902452       -23.72268
1.392                  0.9901435       -23.83499
1.396                  0.9900429       -23.94804
1.4                    0.9899433       -24.06186
1.404                  0.9898445       -24.17648
1.408                  0.9897464       -24.29189
1.412                  0.9896487       -24.40813
1.416                  0.9895514       -24.52521
1.42                   0.9894541       -24.64315
1.424                  0.9893567       -24.76195
1.428                  0.9892591       -24.88166
1.432                  0.9891609       -25.00226
1.436                  0.9890619       -25.12379
1.44                    0.988962       -25.24626
1.444                  0.9888608       -25.36968
1.448                  0.9887581       -25.49406
1.452                  0.9886537       -25.61943
1.456                  0.9885472       -25.74579
1.46                   0.9884385       -25.87316
1.464                   0.988327       -26.00155
1.468                  0.9882128       -26.13097
1.472                  0.9880952       -26.26144
1.476                  0.9879742       -26.39296
1.48                   0.9878494       -26.52554
1.484                  0.9877205       -26.65919
1.488                  0.9875873       -26.79392
1.492                  0.9874492       -26.92974
1.496                  0.9873062       -27.06666
1.5                    0.9871576       -27.20468
1.504                  0.9870035       -27.34381
1.508                  0.9868433       -27.48406
1.512                  0.9866768       -27.62542
1.516                  0.9865038       -27.76791
1.52                   0.9863238       -27.91153
1.524                  0.9861364       -28.05628
1.528                  0.9859417       -28.20216
1.532                   0.985739       -28.34917
1.536                  0.9855283       -28.49732
1.54                   0.9853091       -28.64661
1.544                  0.9850813       -28.79703
1.548                  0.9848445       -28.94859
1.552                  0.9845985       -29.10129
1.556                  0.9843429       -29.25513
1.56                   0.9840778       -29.41009
1.564                  0.9838026       -29.56618
1.568                  0.9835172       -29.72341
1.572                  0.9832215       -29.88176
1.576                  0.9829152       -30.04123
1.58                    0.982598       -30.20183
1.584                  0.9822699       -30.36354
1.588                  0.9819306       -30.52636
1.592                  0.9815801        -30.6903
1.596                  0.9812182       -30.85534
1.6                    0.9808445       -31.02149
1.604                  0.9804593       -31.18873
1.608                  0.9800623       -31.35706
1.612                  0.9796533        -31.5265
1.616                  0.9792325       -31.69702
1.62                   0.9787996       -31.86862
1.624                  0.9783546       -32.04131
1.628                  0.9778975       -32.21508
1.632                  0.9774284       -32.38993
1.636                  0.9769471       -32.56586
1.64                   0.9764535       -32.74286
1.644                   0.975948       -32.92094
1.648                  0.9754303        -33.1001
1.652                  0.9749005       -33.28034
1.656                  0.9743587       -33.46165
1.66                    0.973805       -33.64404
1.664                  0.9732395       -33.82752
1.668                  0.9726622       -34.01208
1.672                   0.972073       -34.19775
1.676                  0.9714724       -34.38451
1.68                   0.9708603       -34.57237
1.684                  0.9702368       -34.76135
1.688                  0.9696022       -34.95146
1.692                  0.9689562       -35.14269
1.696                  0.9682994       -35.33507
1.7                    0.9676317       -35.52861
1.704                  0.9669533       -35.72333
1.708                  0.9662645       -35.91922
1.712                  0.9655652       -36.11633
1.716                  0.9648556       -36.31465
1.72                   0.9641359       -36.51421
1.724                  0.9634062       -36.71505
1.728                  0.9626668       -36.91715
1.732                  0.9619177       -37.12057
1.736                  0.9611589       -37.32533
1.74                   0.9603908       -37.53143
1.744                  0.9596133       -37.73894
1.748                  0.9588267       -37.94786
1.752                  0.9580307       -38.15823
1.756                  0.9572259       -38.37009
1.76                   0.9564121       -38.58346
1.764                  0.9555895       -38.79838
1.768                  0.9547579        -39.0149
1.772                  0.9539176       -39.23305
1.776                  0.9530685       -39.45288
1.78                   0.9522105       -39.67442
1.784                  0.9513438       -39.89771
1.788                  0.9504681       -40.12282
1.792                  0.9495834       -40.34977
1.796                  0.9486898       -40.57863
1.8                     0.947787       -40.80943
1.804                  0.9468749       -41.04223
1.808                  0.9459534       -41.27709
1.812                  0.9450222       -41.51405
1.816                   0.944081       -41.75317
1.82                   0.9431298       -41.99451
1.824                  0.9421682       -42.23813
1.828                  0.9411957       -42.48408
1.832                  0.9402123       -42.73242
1.836                  0.9392174       -42.98321
1.84                   0.9382106       -43.23651
1.844                  0.9371916        -43.4924
1.848                  0.9361597       -43.75092
1.852                  0.9351146       -44.01214
1.856                  0.9340556       -44.27613
1.86                   0.9329823       -44.54295
1.864                  0.9318939       -44.81267
1.868                  0.9307899       -45.08535
1.872                  0.9296695       -45.36104
1.876                  0.9285321       -45.63985
1.88                   0.9273767       -45.92181
1.884                  0.9262029       -46.20701
1.888                  0.9250094       -46.49549
1.892                  0.9237957       -46.78735
1.896                  0.9225609       -47.08262
1.9                    0.9213039       -47.38139
1.904                  0.9200238       -47.68373
1.908                  0.9187196       -47.98969
1.912                  0.9173905       -48.29935
1.916                  0.9160349       -48.61277
1.92                   0.9146522       -48.93002
1.924                  0.9132411       -49.25116
1.928                  0.9118006       -49.57625
1.932                  0.9103293       -49.90536
1.936                  0.9088261       -50.23856
1.94                   0.9072899       -50.57589
1.944                  0.9057193       -50.91744
1.948                   0.904113       -51.26325
1.952                  0.9024699        -51.6134
1.956                  0.9007883       -51.96792
1.96                   0.8990674       -52.32689
1.964                  0.8973055       -52.69037
1.968                  0.8955012       -53.05841
1.972                  0.8936532       -53.43106
1.976                  0.8917603       -53.80839
1.98                   0.8898207       -54.19044
1.984                  0.8878334       -54.57726
1.988                  0.8857968       -54.96892
1.992                  0.8837093       -55.36546
1.996                  0.8815698       -55.76693
2                      0.8793766       -56.17338
2.004                  0.8771283       -56.58487
2.008                  0.8748235       -57.00143
2.012                   0.872461        -57.4231
2.016                   0.870039       -57.84996
2.02                   0.8675562       -58.28204
2.024                  0.8650113       -58.71936
2.028                  0.8624028         -59.162
2.032                  0.8597293       -59.60999
2.036                  0.8569897       -60.06335
2.04                   0.8541823       -60.52215
2.044                  0.8513057       -60.98644
2.048                  0.8483589       -61.45622
2.052                  0.8453404       -61.93157
2.056                   0.842249       -62.41252
2.06                   0.8390834        -62.8991
2.064                  0.8358424       -63.39135
2.068                  0.8325248       -63.88932
2.072                  0.8291294       -64.39306
2.076                  0.8256552        -64.9026
2.08                    0.822101       -65.41795
2.084                  0.8184657        -65.9392
2.088                  0.8147484       -66.46638
2.092                  0.8109479       -66.99952
2.096                  0.8070635       -67.53867
2.1                    0.8030942       -68.08385
2.104                   0.799039       -68.63516
2.108                  0.7948973       -69.19261
2.112                  0.7906683       -69.75625
2.116                  0.7863511       -70.32612
2.12                   0.7819452        -70.9023
2.124                    0.77745       -71.48482
2.128                   0.772865       -72.07375
2.132                  0.7681893       -72.66914
2.136                  0.7634227       -73.27105
2.14                    0.758565       -73.87954
2.144                  0.7536156       -74.49468
2.148                  0.7485743       -75.11654
2.152                  0.7434408       -75.74519
2.156                  0.7382152       -76.38072
2.16                    0.732897       -77.02318
2.164                  0.7274864       -77.67267
2.168                  0.7219834        -78.3293
2.172                  0.7163882       -78.99314
2.176                  0.7107007        -79.6643
2.18                   0.7049215       -80.34288
2.184                  0.6990505         -81.029
2.188                  0.6930884       -81.72276
2.192                  0.6870356        -82.4243
2.196                  0.6808923       -83.13375
2.2                    0.6746595       -83.85126
2.204                  0.6683378       -84.57697
2.208                  0.6619276       -85.31104
2.212                  0.6554302       -86.05364
2.216                  0.6488462       -86.80495
2.22                   0.6421766       -87.56517
2.224                  0.6354225       -88.33446
2.228                  0.6285852        -89.1131
2.232                  0.6216657       -89.90128
2.236                  0.6146654       -90.69924
2.24                   0.6075857       -91.50726
2.244                  0.6004282       -92.32562
2.248                  0.5931945       -93.15458
2.252                   0.585886        -93.9945
2.256                  0.5785047       -94.84568
2.26                   0.5710524        -95.7085
2.264                  0.5635312       -96.58334
2.268                  0.5559431       -97.47058
2.272                  0.5482902       -98.37068
2.276                   0.540575        -99.2841
2.28                   0.5327996       -100.2113
2.284                  0.5249669       -101.1529
2.288                  0.5170793       -102.1094
2.292                  0.5091396       -103.0813
2.296                  0.5011508       -104.0695
2.3                    0.4931159       -105.0745
2.304                  0.4850382       -106.0971
2.308                  0.4769209        -107.138
2.312                  0.4687676       -108.1982
2.316                   0.460582       -109.2786
2.32                   0.4523679       -110.3801
2.324                  0.4441295       -111.5037
2.328                  0.4358709       -112.6506
2.332                  0.4275967       -113.8221
2.336                  0.4193116       -115.0193
2.34                   0.4110206       -116.2437
2.344                  0.4027288       -117.4968
2.348                  0.3944419       -118.7802
2.352                  0.3861656       -120.0955