! TOUCHSTONE file generated by CST MICROWAVE STUDIO
! Date and time: Thu May 12 15:28:11 2022
! Project name: AppElm_antenne_dipole_FR4.cst
! Parameters = {L=38.8; e=0.035; f=2.45e+09; h=1.6; i=0.8; l1=3.8; lambda=122.449; ls=30; wl=1.7; ws=80}
! Header version: 2018
! Port assignment regex: !\s*Touchstone port\s*([0-9]+)\s*=\s*(CST MWS port|CST DS port)\s*([0-9]+|Zmin|Zmax)\s*\(\"(.*)\"\)(\s*mode\s*([0-9]+))?.*
! Touchstone port assignment:
! Touchstone port 1 = CST MWS port 1 ("")
# GHz S MA R 50
0                      0.9998761              -0
0.004                  0.9998759     -0.05384916
0.008                  0.9998758      -0.1076988
0.012                  0.9998755      -0.1615496
0.016                  0.9998749      -0.2154019
0.02                   0.9998742      -0.2692563
0.024                  0.9998734      -0.3231133
0.028                  0.9998725      -0.3769734
0.032                  0.9998714      -0.4308371
0.036                  0.9998701      -0.4847049
0.04                   0.9998688      -0.5385771
0.044                  0.9998671      -0.5924545
0.048                  0.9998654      -0.6463372
0.052                  0.9998635      -0.7002257
0.056                  0.9998615      -0.7541206
0.06                   0.9998592       -0.808022
0.064                  0.9998568      -0.8619305
0.068                  0.9998543      -0.9158462
0.072                  0.9998516      -0.9697697
0.076                  0.9998487       -1.023701
0.08                   0.9998456       -1.077641
0.084                  0.9998424       -1.131589
0.088                  0.9998389       -1.185546
0.092                  0.9998353       -1.239512
0.096                  0.9998315       -1.293487
0.1                    0.9998275       -1.347471
0.104                  0.9998233       -1.401465
0.108                   0.999819       -1.455469
0.112                  0.9998144       -1.509482
0.116                  0.9998096       -1.563505
0.12                   0.9998046       -1.617538
0.124                  0.9997994       -1.671581
0.128                  0.9997943       -1.725634
0.132                  0.9997887       -1.779697
0.136                  0.9997831        -1.83377
0.14                   0.9997772       -1.887853
0.144                  0.9997711       -1.941946
0.148                  0.9997649        -1.99605
0.152                  0.9997586       -2.050163
0.156                  0.9997521       -2.104287
0.16                   0.9997454       -2.158421
0.164                  0.9997385       -2.212565
0.168                  0.9997317        -2.26672
0.172                  0.9997245       -2.320884
0.176                  0.9997173       -2.375059
0.18                     0.99971       -2.429244
0.184                  0.9997027        -2.48344
0.188                  0.9996951       -2.537647
0.192                  0.9996875       -2.591864
0.196                    0.99968       -2.646092
0.2                    0.9996723       -2.700332
0.204                  0.9996646       -2.754582
0.208                  0.9996569       -2.808844
0.212                  0.9996492       -2.863119
0.216                  0.9996416       -2.917405
0.22                   0.9996338       -2.971704
0.224                  0.9996264       -3.026016
0.228                  0.9996187       -3.080343
0.232                  0.9996112       -3.134683
0.236                  0.9996039       -3.189038
0.24                   0.9995968       -3.243408
0.244                  0.9995896       -3.297795
0.248                  0.9995827       -3.352199
0.252                  0.9995761       -3.406621
0.256                  0.9995695       -3.461062
0.26                   0.9995633       -3.515522
0.264                  0.9995572       -3.570004
0.268                  0.9995514       -3.624507
0.272                  0.9995459       -3.679034
0.276                  0.9995407       -3.733585
0.28                   0.9995358       -3.788162
0.284                  0.9995313       -3.842767
0.288                  0.9995271       -3.897399
0.292                  0.9995234       -3.952063
0.296                  0.9995199       -4.006758
0.3                     0.999517       -4.061487
0.304                  0.9995144       -4.116252
0.308                  0.9995123       -4.171054
0.312                  0.9995107       -4.225895
0.316                  0.9995095       -4.280777
0.32                   0.9995089       -4.335702
0.324                  0.9995087       -4.390672
0.328                   0.999509       -4.445691
0.332                  0.9995099       -4.500758
0.336                  0.9995113       -4.555877
0.34                   0.9995132        -4.61105
0.344                  0.9995157        -4.66628
0.348                  0.9995186       -4.721569
0.352                  0.9995222       -4.776919
0.356                  0.9995264       -4.832332
0.36                    0.999531       -4.887812
0.364                  0.9995362        -4.94336
0.368                  0.9995419       -4.998981
0.372                  0.9995481       -5.054673
0.376                   0.999555       -5.110443
0.38                   0.9995623       -5.166291
0.384                  0.9995702        -5.22222
0.388                  0.9995784       -5.278234
0.392                  0.9995873       -5.334333
0.396                  0.9995965       -5.390522
0.4                    0.9996063         -5.4468
0.404                  0.9996165       -5.503174
0.408                   0.999627       -5.559644
0.412                   0.999638       -5.616211
0.416                  0.9996494        -5.67288
0.42                    0.999661       -5.729652
0.424                   0.999673       -5.786528
0.428                  0.9996852       -5.843513
0.432                  0.9996977       -5.900606
0.436                  0.9997105       -5.957811
0.44                   0.9997234        -6.01513
0.444                  0.9997365       -6.072563
0.448                  0.9997497       -6.130114
0.452                  0.9997629       -6.187783
0.456                  0.9997762       -6.245572
0.46                   0.9997895       -6.303484
0.464                  0.9998028       -6.361517
0.468                  0.9998159       -6.419676
0.472                   0.999829       -6.477959
0.476                  0.9998419       -6.536368
0.48                   0.9998547       -6.594905
0.484                  0.9998671        -6.65357
0.488                  0.9998793       -6.712363
0.492                   0.999891       -6.771286
0.496                  0.9999025       -6.830337
0.5                    0.9999135        -6.88952
0.504                   0.999924       -6.948831
0.508                   0.999934       -7.008274
0.512                  0.9999436       -7.067845
0.516                  0.9999524       -7.127546
0.52                   0.9999606       -7.187378
0.524                  0.9999682       -7.247337
0.528                  0.9999751       -7.307423
0.532                  0.9999812       -7.367639
0.536                  0.9999865        -7.42798
0.54                   0.9999909       -7.488447
0.544                  0.9999946       -7.549038
0.548                  0.9999973       -7.609753
0.552                  0.9999991        -7.67059
0.556                  0.9999999       -7.731546
0.56                   0.9999998       -7.792624
0.564                  0.9999988       -7.853817
0.568                  0.9999966       -7.915127
0.572                  0.9999934       -7.976551
0.576                  0.9999892       -8.038087
0.58                   0.9999836       -8.099735
0.584                  0.9999772       -8.161491
0.588                  0.9999696       -8.223352
0.592                  0.9999609       -8.285319
0.596                  0.9999511       -8.347389
0.6                    0.9999401       -8.409558
0.604                  0.9999281       -8.471825
0.608                  0.9999149       -8.534189
0.612                  0.9999006       -8.596647
0.616                  0.9998851       -8.659198
0.62                   0.9998686       -8.721839
0.624                   0.999851       -8.784566
0.628                  0.9998322       -8.847379
0.632                  0.9998127       -8.910277
0.636                  0.9997919       -8.973256
0.64                   0.9997702       -9.036315
0.644                  0.9997474       -9.099454
0.648                  0.9997238       -9.162667
0.652                  0.9996993       -9.225957
0.656                  0.9996739       -9.289319
0.66                   0.9996478       -9.352753
0.664                  0.9996208       -9.416259
0.668                   0.999593       -9.479836
0.672                  0.9995646       -9.543478
0.676                  0.9995355       -9.607189
0.68                   0.9995059       -9.670968
0.684                  0.9994758       -9.734812
0.688                  0.9994451       -9.798725
0.692                  0.9994141         -9.8627
0.696                  0.9993827       -9.926744
0.7                     0.999351       -9.990853
0.704                  0.9993191       -10.05503
0.708                   0.999287       -10.11927
0.712                  0.9992548       -10.18358
0.716                  0.9992225       -10.24796
0.72                   0.9991904       -10.31241
0.724                  0.9991583       -10.37692
0.728                  0.9991263       -10.44152
0.732                  0.9990946       -10.50618
0.736                  0.9990631       -10.57093
0.74                   0.9990321       -10.63575
0.744                  0.9990013       -10.70066
0.748                  0.9989712       -10.76564
0.752                  0.9989416       -10.83072
0.756                  0.9989126       -10.89588
0.76                   0.9988843       -10.96115
0.764                  0.9988567        -11.0265
0.768                  0.9988299       -11.09196
0.772                   0.998804       -11.15752
0.776                   0.998779        -11.2232
0.78                   0.9987548       -11.28899
0.784                  0.9987318       -11.35489
0.788                  0.9987099       -11.42092
0.792                  0.9986889       -11.48708
0.796                  0.9986692       -11.55337
0.8                    0.9986505        -11.6198
0.804                  0.9986331       -11.68638
0.808                   0.998617        -11.7531
0.812                  0.9986021       -11.81999
0.816                  0.9985886       -11.88703
0.82                   0.9985763       -11.95424
0.824                  0.9985653       -12.02163
0.828                  0.9985556        -12.0892
0.832                  0.9985474       -12.15695
0.836                  0.9985404        -12.2249
0.84                   0.9985348       -12.29305
0.844                  0.9985305        -12.3614
0.848                  0.9985276       -12.42997
0.852                   0.998526       -12.49876
0.856                  0.9985256       -12.56777
0.86                   0.9985265       -12.63702
0.864                  0.9985286       -12.70651
0.868                   0.998532       -12.77624
0.872                  0.9985365       -12.84623
0.876                   0.998542       -12.91647
0.88                   0.9985487       -12.98698
0.884                  0.9985563       -13.05776
0.888                  0.9985648       -13.12881
0.892                  0.9985744       -13.20016
0.896                  0.9985846       -13.27179
0.9                    0.9985958       -13.34371
0.904                  0.9986075       -13.41594
0.908                  0.9986198       -13.48847
0.912                  0.9986327       -13.56132
0.916                  0.9986459       -13.63448
0.92                   0.9986596       -13.70796
0.924                  0.9986734       -13.78176
0.928                  0.9986873        -13.8559
0.932                  0.9987014       -13.93038
0.936                  0.9987154       -14.00519
0.94                   0.9987293       -14.08034
0.944                  0.9987429       -14.15584
0.948                  0.9987561       -14.23168
0.952                  0.9987689       -14.30788
0.956                  0.9987811       -14.38443
0.96                   0.9987926       -14.46133
0.964                  0.9988033        -14.5386
0.968                  0.9988131       -14.61622
0.972                  0.9988219        -14.6942
0.976                  0.9988295       -14.77255
0.98                   0.9988358       -14.85126
0.984                  0.9988409       -14.93033
0.988                  0.9988444       -15.00976
0.992                  0.9988463       -15.08956
0.996                  0.9988467       -15.16972
1                      0.9988451       -15.25024
1.004                  0.9988417       -15.33112
1.008                  0.9988364       -15.41237
1.012                  0.9988289       -15.49397
1.016                  0.9988192       -15.57592
1.02                   0.9988072       -15.65823
1.024                  0.9987928       -15.74089
1.028                  0.9987761       -15.82393
1.032                  0.9987568       -15.90725
1.036                  0.9987349       -15.99097
1.04                   0.9987103       -16.07498
1.044                   0.998683       -16.15937
1.048                  0.9986529       -16.24409
1.052                  0.9986199       -16.32914
1.056                   0.998584       -16.41449
1.06                   0.9985451       -16.50014
1.064                  0.9985033       -16.58615
1.068                  0.9984584       -16.67248
1.072                  0.9984105       -16.75909
1.076                  0.9983595       -16.84605
1.08                   0.9983054       -16.93326
1.084                  0.9982483       -17.02079
1.088                   0.998188       -17.10858
1.092                  0.9981247       -17.19668
1.096                  0.9980582       -17.28507
1.1                    0.9979888       -17.37372
1.104                  0.9979164       -17.46265
1.108                  0.9978408       -17.55186
1.112                  0.9977624       -17.64133
1.116                  0.9976811       -17.73105
1.12                   0.9975969       -17.82105
1.124                  0.9975099       -17.91128
1.128                  0.9974202       -18.00178
1.132                  0.9973278       -18.09252
1.136                  0.9972328       -18.18351
1.14                   0.9971352       -18.27474
1.144                  0.9970354        -18.3662
1.148                  0.9969332       -18.45791
1.152                  0.9968288       -18.54986
1.156                  0.9967222       -18.64204
1.16                   0.9966136       -18.73446
1.164                  0.9965031       -18.82711
1.168                  0.9963909          -18.92
1.172                  0.9962771       -19.01312
1.176                  0.9961616       -19.10648
1.18                   0.9960448       -19.20007
1.184                  0.9959268        -19.2939
1.188                  0.9958075       -19.38798
1.192                  0.9956873        -19.4823
1.196                  0.9955661       -19.57686
1.2                    0.9954444       -19.67168
1.204                  0.9953219       -19.76675
1.208                   0.995199       -19.86208
1.212                  0.9950758       -19.95768
1.216                  0.9949525       -20.05355
1.22                   0.9948291       -20.14969
1.224                  0.9947057       -20.24612
1.228                  0.9945826       -20.34284
1.232                  0.9944599       -20.43985
1.236                  0.9943377       -20.53718
1.24                    0.994216       -20.63482
1.244                   0.994095       -20.73279
1.248                   0.993975       -20.83109
1.252                  0.9938559       -20.92974
1.256                  0.9937379       -21.02875
1.26                    0.993621       -21.12813
1.264                  0.9935055       -21.22789
1.268                  0.9933913       -21.32804
1.272                  0.9932785        -21.4286
1.276                  0.9931672       -21.52958
1.28                   0.9930575         -21.631
1.284                  0.9929496       -21.73285
1.288                  0.9928432       -21.83518
1.292                  0.9927387       -21.93798
1.296                  0.9926359       -22.04128
1.3                    0.9925349       -22.14508
1.304                  0.9924356        -22.2494
1.308                  0.9923383       -22.35428
1.312                  0.9922427        -22.4597
1.316                   0.992149        -22.5657
1.32                    0.992057       -22.67228
1.324                  0.9919668       -22.77948
1.328                  0.9918783       -22.88729
1.332                  0.9917914       -22.99575
1.336                  0.9917061       -23.10487
1.34                   0.9916223       -23.21466
1.344                  0.9915399       -23.32515
1.348                  0.9914587       -23.43634
1.352                  0.9913789       -23.54827
1.356                     0.9913       -23.66094
1.36                    0.991222       -23.77436
1.364                  0.9911451       -23.88857
1.368                  0.9910686       -24.00357
1.372                  0.9909925       -24.11938
1.376                  0.9909168       -24.23602
1.38                   0.9908412       -24.35351
1.384                  0.9907656       -24.47185
1.388                  0.9906896       -24.59107
1.392                  0.9906131       -24.71117
1.396                   0.990536       -24.83218
1.4                    0.9904579       -24.95411
1.404                  0.9903786       -25.07697
1.408                  0.9902977       -25.20078
1.412                  0.9902153       -25.32554
1.416                  0.9901309       -25.45127
1.42                   0.9900443       -25.57799
1.424                  0.9899553        -25.7057
1.428                  0.9898633       -25.83442
1.432                  0.9897684       -25.96415
1.436                  0.9896702       -26.09491
1.44                   0.9895683        -26.2267
1.444                  0.9894625       -26.35954
1.448                  0.9893526       -26.49342
1.452                  0.9892379       -26.62837
1.456                  0.9891187       -26.76438
1.46                   0.9889942       -26.90146
1.464                  0.9888644       -27.03962
1.468                  0.9887288       -27.17886
1.472                  0.9885875       -27.31918
1.476                  0.9884396        -27.4606
1.48                   0.9882853       -27.60311
1.484                   0.988124       -27.74672
1.488                  0.9879556       -27.89143
1.492                  0.9877798       -28.03724
1.496                  0.9875963       -28.18414
1.5                    0.9874048       -28.33216
1.504                   0.987205       -28.48127
1.508                  0.9869968       -28.63148
1.512                  0.9867798        -28.7828
1.516                  0.9865539       -28.93522
1.52                   0.9863188       -29.08873
1.524                  0.9860741       -29.24334
1.528                    0.98582       -29.39904
1.532                  0.9855558       -29.55584
1.536                  0.9852817       -29.71372
1.54                   0.9849974       -29.87269
1.544                  0.9847026       -30.03274
1.548                  0.9843973       -30.19387
1.552                  0.9840812       -30.35608
1.556                  0.9837544       -30.51936
1.56                   0.9834167       -30.68369
1.564                  0.9830679        -30.8491
1.568                  0.9827078       -31.01557
1.572                  0.9823366       -31.18309
1.576                   0.981954       -31.35167
1.58                   0.9815601        -31.5213
1.584                  0.9811548       -31.69196
1.588                  0.9807379       -31.86368
1.592                  0.9803098       -32.03644
1.596                  0.9798699       -32.21024
1.6                    0.9794189       -32.38508
1.604                  0.9789562       -32.56096
1.608                  0.9784822       -32.73787
1.612                  0.9779967       -32.91583
1.616                  0.9775001       -33.09482
1.62                   0.9769921       -33.27485
1.624                   0.976473       -33.45593
1.628                  0.9759428       -33.63805
1.632                  0.9754017       -33.82122
1.636                  0.9748497       -34.00544
1.64                   0.9742871       -34.19072
1.644                  0.9737137       -34.37708
1.648                  0.9731299       -34.56451
1.652                  0.9725357       -34.75301
1.656                  0.9719314       -34.94262
1.66                   0.9713169       -35.13332
1.664                  0.9706927       -35.32515
1.668                  0.9700587       -35.51811
1.672                  0.9694152       -35.71221
1.676                  0.9687622       -35.90748
1.68                   0.9681001       -36.10392
1.684                  0.9674289       -36.30158
1.688                  0.9667487       -36.50044
1.692                  0.9660598       -36.70055
1.696                  0.9653623       -36.90193
1.7                    0.9646565        -37.1046
1.704                  0.9639424       -37.30857
1.708                  0.9632202       -37.51391
1.712                  0.9624899        -37.7206
1.716                  0.9617519       -37.92871
1.72                   0.9610059       -38.13826
1.724                  0.9602524       -38.34927
1.728                  0.9594913        -38.5618
1.732                  0.9587227       -38.77587
1.736                  0.9579466       -38.99152
1.74                   0.9571633       -39.20879
1.744                  0.9563725       -39.42774
1.748                  0.9555744        -39.6484
1.752                   0.954769        -39.8708
1.756                   0.953956       -40.09502
1.76                   0.9531357       -40.32107
1.764                  0.9523079       -40.54903
1.768                  0.9514725       -40.77894
1.772                  0.9506293       -41.01084
1.776                  0.9497783        -41.2448
1.78                   0.9489192       -41.48087
1.784                  0.9480517       -41.71911
1.788                  0.9471756       -41.95957
1.792                  0.9462909        -42.2023
1.796                  0.9453971       -42.44738
1.8                    0.9444939       -42.69485
1.804                  0.9435808       -42.94479
1.808                  0.9426577       -43.19724
1.812                  0.9417239       -43.45228
1.816                   0.940779       -43.70998
1.82                   0.9398226       -43.97039
1.824                  0.9388541       -44.23357
1.828                  0.9378731        -44.4996
1.832                  0.9368787       -44.76855
1.836                  0.9358705       -45.04047
1.84                   0.9348478       -45.31543
1.844                    0.93381       -45.59351
1.848                  0.9327559       -45.87478
1.852                  0.9316852       -46.15928
1.856                  0.9305971       -46.44711
1.86                   0.9294903       -46.73832
1.864                  0.9283644       -47.03299
1.868                  0.9272182       -47.33117
1.872                  0.9260509       -47.63294
1.876                  0.9248614       -47.93837
1.88                    0.923649       -48.24752
1.884                  0.9224123       -48.56047
1.888                  0.9211503       -48.87727
1.892                  0.9198621       -49.19799
1.896                  0.9185462       -49.52272
1.9                    0.9172018       -49.85148
1.904                  0.9158275       -50.18437
1.908                   0.914422       -50.52145
1.912                  0.9129844       -50.86277
1.916                  0.9115132       -51.20841
1.92                   0.9100072        -51.5584
1.924                  0.9084649       -51.91284
1.928                  0.9068853       -52.27177
1.932                  0.9052668       -52.63525
1.936                  0.9036081       -53.00334
1.94                   0.9019077       -53.37611
1.944                  0.9001643        -53.7536
1.948                  0.8983766       -54.13586
1.952                  0.8965432       -54.52298
1.956                  0.8946626       -54.91497
1.96                   0.8927333        -55.3119
1.964                  0.8907539       -55.71385
1.968                   0.888723       -56.12083
1.972                  0.8866391       -56.53291
1.976                  0.8845007       -56.95015
1.98                   0.8823065       -57.37258
1.984                   0.880055       -57.80026
1.988                  0.8777447       -58.23324
1.992                  0.8753743       -58.67155
1.996                  0.8729423       -59.11524
2                      0.8704473       -59.56437
2.004                  0.8678879       -60.01898
2.008                  0.8652626       -60.47912
2.012                  0.8625704        -60.9448
2.016                  0.8598094       -61.41611
2.02                   0.8569787       -61.89306
2.024                  0.8540769       -62.37573
2.028                  0.8511027       -62.86411
2.032                  0.8480548       -63.35828
2.036                   0.844932       -63.85827
2.04                    0.841733       -64.36413
2.044                  0.8384567       -64.87591
2.048                   0.835102       -65.39363
2.052                  0.8316677       -65.91736
2.056                  0.8281529       -66.44712
2.06                   0.8245565       -66.98296
2.064                  0.8208773       -67.52495
2.068                  0.8171146       -68.07312
2.072                  0.8132673       -68.62751
2.076                  0.8093346       -69.18817
2.08                   0.8053158       -69.75517
2.084                    0.80121       -70.32854
2.088                  0.7970165       -70.90833
2.092                  0.7927345       -71.49463
2.096                  0.7883636       -72.08746
2.1                    0.7839032       -72.68688
2.104                  0.7793525       -73.29299
2.108                  0.7747112       -73.90582
2.112                  0.7699792       -74.52543
2.116                  0.7651556       -75.15192
2.12                   0.7602405       -75.78536
2.124                  0.7552335       -76.42581
2.128                  0.7501345       -77.07337
2.132                  0.7449434       -77.72808
2.136                  0.7396601       -78.39009
2.14                   0.7342846       -79.05948
2.144                  0.7288172       -79.73632
2.148                  0.7232579       -80.42073
2.152                  0.7176069       -81.11282
2.156                  0.7118646       -81.81273
2.16                   0.7060312       -82.52054
2.164                  0.7001074       -83.23641
2.168                  0.6940935       -83.96046
2.172                  0.6879903       -84.69288
2.176                  0.6817983       -85.43376
2.18                   0.6755184       -86.18332
2.184                  0.6691513       -86.94171
2.188                  0.6626979       -87.70909
2.192                  0.6561593        -88.4857
2.196                  0.6495366       -89.27172
2.2                    0.6428309       -90.06736
2.204                  0.6360434       -90.87289
2.208                  0.6291756       -91.68851
2.212                  0.6222288       -92.51451
2.216                  0.6152045       -93.35117
2.22                   0.6081045       -94.19878
2.224                  0.6009303       -95.05764
2.228                  0.5936839        -95.9281
2.232                  0.5863671       -96.81052
2.236                  0.5789819       -97.70527
2.24                   0.5715306       -98.61275
2.244                  0.5640154       -99.53338
2.248                  0.5564385       -100.4676
2.252                  0.5488025        -101.416
2.256                    0.54111       -102.3789
2.26                   0.5333637        -103.357
2.264                  0.5255665       -104.3509
2.268                  0.5177213       -105.3611
2.272                  0.5098314       -106.3883
2.276                     0.5019       -107.4333
2.28                   0.4939306       -108.4968
2.284                  0.4859268       -109.5796
2.288                  0.4778923       -110.6825
2.292                  0.4698313       -111.8065
2.296                  0.4617478       -112.9525
2.3                    0.4536462       -114.1216
2.304                  0.4455312       -115.3149
2.308                  0.4374077       -116.5336
2.312                  0.4292805       -117.7789
2.316                  0.4211552       -119.0522
2.32                   0.4130373       -120.3549
2.324                  0.4049329       -121.6885
2.328                  0.3968482       -123.0547
2.332                  0.3887896       -124.4552
2.336                  0.3807644       -125.8918
2.34                   0.3727797       -127.3664
2.344                  0.3648436       -128.8811
2.348                  0.3569641       -130.4381
2.352                  0.3491501       -132.0396