! TOUCHSTONE file generated by CST MICROWAVE STUDIO
! Date and time: Thu May 12 15:28:16 2022
! Project name: AppElm_antenne_dipole_FR4.cst
! Parameters = {L=38.8; e=0.035; f=2.45e+09; h=1.6; i=0.8; l1=4.8; lambda=122.449; ls=30; wl=1.7; ws=80}
! Header version: 2018
! Port assignment regex: !\s*Touchstone port\s*([0-9]+)\s*=\s*(CST MWS port|CST DS port)\s*([0-9]+|Zmin|Zmax)\s*\(\"(.*)\"\)(\s*mode\s*([0-9]+))?.*
! Touchstone port assignment:
! Touchstone port 1 = CST MWS port 1 ("")
# GHz S MA R 50
0                      0.9990063              -0
0.004                  0.9990072     -0.05581901
0.008                  0.9990098      -0.1116445
0.012                  0.9990141      -0.1674828
0.016                  0.9990199      -0.2233404
0.02                   0.9990276      -0.2792237
0.024                  0.9990368      -0.3351387
0.028                  0.9990477      -0.3910918
0.032                  0.9990601      -0.4470889
0.036                  0.9990742       -0.503136
0.04                   0.9990896      -0.5592388
0.044                  0.9991066       -0.615403
0.048                  0.9991247       -0.671634
0.052                  0.9991444      -0.7279368
0.056                  0.9991651      -0.7843166
0.06                   0.9991871      -0.8407781
0.064                  0.9992102      -0.8973258
0.068                  0.9992342      -0.9539642
0.072                  0.9992593       -1.010697
0.076                  0.9992852       -1.067528
0.08                   0.9993118       -1.124461
0.084                  0.9993391       -1.181498
0.088                  0.9993669       -1.238643
0.092                  0.9993953       -1.295898
0.096                  0.9994241       -1.353266
0.1                    0.9994531       -1.410747
0.104                  0.9994822       -1.468345
0.108                  0.9995115       -1.526059
0.112                  0.9995408       -1.583891
0.116                  0.9995699       -1.641841
0.12                   0.9995988        -1.69991
0.124                  0.9996273       -1.758098
0.128                  0.9996555       -1.816402
0.132                  0.9996832       -1.874825
0.136                  0.9997102       -1.933363
0.14                   0.9997366       -1.992015
0.144                   0.999762        -2.05078
0.148                  0.9997866       -2.109656
0.152                  0.9998103       -2.168641
0.156                  0.9998328       -2.227731
0.16                   0.9998542       -2.286924
0.164                  0.9998744       -2.346217
0.168                  0.9998933       -2.405605
0.172                   0.999911       -2.465087
0.176                  0.9999271       -2.524657
0.18                   0.9999417       -2.584312
0.184                  0.9999548       -2.644047
0.188                  0.9999662       -2.703859
0.192                  0.9999761       -2.763741
0.196                  0.9999843       -2.823691
0.2                    0.9999909       -2.883702
0.204                  0.9999957        -2.94377
0.208                  0.9999988       -3.003889
0.212                          1       -3.064056
0.216                  0.9999995       -3.124264
0.22                   0.9999972       -3.184509
0.224                  0.9999932       -3.244785
0.228                  0.9999873       -3.305087
0.232                  0.9999797        -3.36541
0.236                  0.9999704       -3.425749
0.24                   0.9999593       -3.486098
0.244                  0.9999467       -3.546454
0.248                  0.9999324       -3.606812
0.252                  0.9999165       -3.667164
0.256                   0.999899       -3.727509
0.26                     0.99988       -3.787843
0.264                  0.9998595        -3.84816
0.268                  0.9998377       -3.908456
0.272                  0.9998147       -3.968727
0.276                  0.9997904       -4.028972
0.28                   0.9997649       -4.089185
0.284                  0.9997384       -4.149364
0.288                  0.9997109       -4.209507
0.292                  0.9996825        -4.26961
0.296                  0.9996534       -4.329672
0.3                    0.9996235       -4.389691
0.304                  0.9995929       -4.449665
0.308                  0.9995619       -4.509594
0.312                  0.9995305       -4.569476
0.316                  0.9994988       -4.629311
0.32                   0.9994669       -4.689099
0.324                  0.9994349        -4.74884
0.328                  0.9994029       -4.808534
0.332                   0.999371       -4.868183
0.336                  0.9993394       -4.927787
0.34                   0.9993082       -4.987349
0.344                  0.9992772       -5.046871
0.348                   0.999247       -5.106354
0.352                  0.9992174       -5.165802
0.356                  0.9991885       -5.225218
0.36                   0.9991605       -5.284604
0.364                  0.9991333       -5.343967
0.368                  0.9991073       -5.403306
0.372                  0.9990824        -5.46263
0.376                  0.9990586       -5.521943
0.38                   0.9990363       -5.581247
0.384                  0.9990153        -5.64055
0.388                  0.9989956       -5.699857
0.392                  0.9989777       -5.759173
0.396                  0.9989612       -5.818506
0.4                    0.9989462        -5.87786
0.404                  0.9989331       -5.937243
0.408                  0.9989218       -5.996661
0.412                  0.9989121        -6.05612
0.416                  0.9989043       -6.115628
0.42                   0.9988983       -6.175193
0.424                  0.9988943       -6.234821
0.428                  0.9988921       -6.294519
0.432                  0.9988919       -6.354296
0.436                  0.9988935       -6.414158
0.44                   0.9988971       -6.474112
0.444                  0.9989026       -6.534166
0.448                  0.9989099       -6.594329
0.452                  0.9989191       -6.654607
0.456                    0.99893       -6.715007
0.46                   0.9989429       -6.775537
0.464                  0.9989575       -6.836203
0.468                  0.9989737       -6.897013
0.472                  0.9989917       -6.957974
0.476                  0.9990111       -7.019094
0.48                   0.9990322       -7.080376
0.484                  0.9990547        -7.14183
0.488                  0.9990787       -7.203459
0.492                  0.9991038        -7.26527
0.496                  0.9991301        -7.32727
0.5                    0.9991576       -7.389463
0.504                  0.9991862       -7.451854
0.508                  0.9992156       -7.514449
0.512                  0.9992459        -7.57725
0.516                  0.9992769       -7.640263
0.52                   0.9993084       -7.703492
0.524                  0.9993405        -7.76694
0.528                   0.999373       -7.830607
0.532                  0.9994056       -7.894499
0.536                  0.9994385       -7.958619
0.54                   0.9994712       -8.022967
0.544                   0.999504       -8.087545
0.548                  0.9995366       -8.152354
0.552                  0.9995685       -8.217395
0.556                  0.9996002       -8.282668
0.56                   0.9996313       -8.348172
0.564                  0.9996615       -8.413908
0.568                  0.9996911       -8.479876
0.572                  0.9997194       -8.546073
0.576                  0.9997469       -8.612497
0.58                   0.9997733       -8.679147
0.584                  0.9997982       -8.746021
0.588                  0.9998216       -8.813116
0.592                  0.9998436       -8.880427
0.596                  0.9998641       -8.947954
0.6                    0.9998828       -9.015692
0.604                  0.9998997       -9.083636
0.608                  0.9999148       -9.151784
0.612                  0.9999279       -9.220128
0.616                  0.9999388       -9.288666
0.62                   0.9999478       -9.357393
0.624                  0.9999546       -9.426303
0.628                  0.9999591        -9.49539
0.632                  0.9999615       -9.564648
0.636                  0.9999616       -9.634072
0.64                   0.9999592       -9.703657
0.644                  0.9999546       -9.773396
0.648                  0.9999474       -9.843284
0.652                   0.999938       -9.913314
0.656                  0.9999262       -9.983478
0.66                   0.9999118       -10.05377
0.664                  0.9998951       -10.12419
0.668                  0.9998761       -10.19473
0.672                  0.9998546       -10.26537
0.676                  0.9998307       -10.33613
0.68                   0.9998049       -10.40698
0.684                  0.9997765       -10.47792
0.688                  0.9997461       -10.54895
0.692                  0.9997134       -10.62007
0.696                  0.9996788       -10.69126
0.7                    0.9996422       -10.76253
0.704                  0.9996036       -10.83386
0.708                  0.9995633       -10.90525
0.712                  0.9995211       -10.97671
0.716                  0.9994773       -11.04822
0.72                   0.9994322       -11.11978
0.724                  0.9993856       -11.19139
0.728                  0.9993376       -11.26304
0.732                  0.9992885       -11.33474
0.736                  0.9992383       -11.40648
0.74                   0.9991873       -11.47826
0.744                  0.9991353       -11.55007
0.748                  0.9990828       -11.62193
0.752                  0.9990296       -11.69382
0.756                  0.9989762       -11.76575
0.76                   0.9989224       -11.83771
0.764                  0.9988685       -11.90972
0.768                  0.9988146       -11.98177
0.772                  0.9987609       -12.05386
0.776                  0.9987076       -12.12599
0.78                   0.9986546       -12.19818
0.784                  0.9986023       -12.27041
0.788                  0.9985506       -12.34271
0.792                  0.9984998       -12.41506
0.796                  0.9984499       -12.48748
0.8                    0.9984013       -12.55997
0.804                  0.9983538       -12.63254
0.808                  0.9983077        -12.7052
0.812                  0.9982632       -12.77794
0.816                  0.9982201       -12.85078
0.82                   0.9981788       -12.92373
0.824                  0.9981393       -12.99679
0.828                  0.9981016       -13.06997
0.832                  0.9980661       -13.14328
0.836                  0.9980325       -13.21674
0.84                   0.9980011       -13.29034
0.844                  0.9979719        -13.3641
0.848                  0.9979449       -13.43803
0.852                  0.9979204       -13.51214
0.856                  0.9978981       -13.58644
0.86                   0.9978783       -13.66094
0.864                  0.9978609       -13.73566
0.868                   0.997846       -13.81059
0.872                  0.9978335       -13.88576
0.876                  0.9978234       -13.96118
0.88                   0.9978158       -14.03685
0.884                  0.9978108       -14.11279
0.888                   0.997808       -14.18901
0.892                  0.9978075       -14.26551
0.896                  0.9978095       -14.34233
0.9                    0.9978136       -14.41945
0.904                  0.9978201        -14.4969
0.908                  0.9978286       -14.57468
0.912                  0.9978391        -14.6528
0.916                  0.9978516       -14.73129
0.92                    0.997866       -14.81014
0.924                  0.9978821       -14.88936
0.928                  0.9978999       -14.96897
0.932                  0.9979192       -15.04898
0.936                  0.9979397       -15.12939
0.94                   0.9979617       -15.21021
0.944                  0.9979846       -15.29146
0.948                  0.9980086       -15.37313
0.952                  0.9980333       -15.45524
0.956                  0.9980586       -15.53779
0.96                   0.9980844       -15.62079
0.964                  0.9981105       -15.70425
0.968                  0.9981367       -15.78818
0.972                  0.9981628       -15.87256
0.976                  0.9981887       -15.95742
0.98                   0.9982141       -16.04275
0.984                  0.9982391       -16.12857
0.988                  0.9982631       -16.21486
0.992                  0.9982862       -16.30164
0.996                   0.998308        -16.3889
1                      0.9983286       -16.47665
1.004                  0.9983476       -16.56489
1.008                  0.9983648       -16.65362
1.012                  0.9983802       -16.74283
1.016                  0.9983934       -16.83253
1.02                   0.9984043       -16.92274
1.024                  0.9984128       -17.01336
1.028                  0.9984186       -17.10453
1.032                  0.9984218       -17.19617
1.036                  0.9984219       -17.28824
1.04                   0.9984189       -17.38083
1.044                  0.9984128       -17.47385
1.048                  0.9984032       -17.56735
1.052                  0.9983902       -17.66127
1.056                  0.9983734       -17.75572
1.06                   0.9983529       -17.85052
1.064                  0.9983286       -17.94585
1.068                  0.9983002       -18.04152
1.072                  0.9982679       -18.13767
1.076                  0.9982314       -18.23422
1.08                   0.9981907       -18.33118
1.084                  0.9981458       -18.42852
1.088                  0.9980965       -18.52628
1.092                   0.998043       -18.62441
1.096                   0.997985       -18.72296
1.1                    0.9979228       -18.82183
1.104                   0.997856       -18.92109
1.108                  0.9977849        -19.0207
1.112                  0.9977094       -19.12067
1.116                  0.9976296       -19.22096
1.12                   0.9975454       -19.32156
1.124                  0.9974571       -19.42251
1.128                  0.9973644       -19.52379
1.132                  0.9972679       -19.62536
1.136                  0.9971672       -19.72724
1.14                   0.9970627       -19.82941
1.144                  0.9969543       -19.93188
1.148                  0.9968421       -20.03463
1.152                  0.9967264       -20.13767
1.156                  0.9966073       -20.24097
1.16                   0.9964849       -20.34456
1.164                  0.9963592       -20.44841
1.168                  0.9962306       -20.55252
1.172                  0.9960992        -20.6569
1.176                  0.9959652       -20.76153
1.18                   0.9958286       -20.86643
1.184                  0.9956898       -20.97158
1.188                   0.995549         -21.077
1.192                  0.9954061       -21.18268
1.196                  0.9952617       -21.28862
1.2                    0.9951157       -21.39482
1.204                  0.9949685       -21.50129
1.208                  0.9948202       -21.60804
1.212                   0.994671       -21.71506
1.216                  0.9945212       -21.82236
1.22                    0.994371       -21.92996
1.224                  0.9942205       -22.03785
1.228                    0.99407       -22.14604
1.232                  0.9939198       -22.25455
1.236                    0.99377       -22.36338
1.24                   0.9936206       -22.47255
1.244                  0.9934722       -22.58206
1.248                  0.9933247       -22.69193
1.252                  0.9931784       -22.80217
1.256                  0.9930334        -22.9128
1.26                   0.9928899       -23.02382
1.264                  0.9927481       -23.13526
1.268                  0.9926082       -23.24714
1.272                  0.9924702       -23.35946
1.276                  0.9923343       -23.47225
1.28                   0.9922006       -23.58552
1.284                  0.9920692       -23.69929
1.288                  0.9919404       -23.81359
1.292                  0.9918139       -23.92843
1.296                  0.9916901       -24.04383
1.3                    0.9915689       -24.15982
1.304                  0.9914503       -24.27641
1.308                  0.9913345       -24.39363
1.312                  0.9912215        -24.5115
1.316                  0.9911111       -24.63004
1.32                   0.9910034       -24.74928
1.324                  0.9908985       -24.86923
1.328                  0.9907961       -24.98993
1.332                  0.9906963       -25.11139
1.336                  0.9905989       -25.23364
1.34                   0.9905039        -25.3567
1.344                  0.9904112       -25.48059
1.348                  0.9903206       -25.60535
1.352                   0.990232       -25.73098
1.356                  0.9901453       -25.85752
1.36                     0.99006         -25.985
1.364                  0.9899764       -26.11342
1.368                  0.9898939       -26.24281
1.372                  0.9898124        -26.3732
1.376                  0.9897319        -26.5046
1.38                   0.9896517       -26.63705
1.384                  0.9895717       -26.77055
1.388                  0.9894918       -26.90513
1.392                  0.9894116       -27.04082
1.396                  0.9893306       -27.17762
1.4                    0.9892487       -27.31556
1.404                  0.9891657       -27.45465
1.408                  0.9890809       -27.59491
1.412                  0.9889942       -27.73636
1.416                  0.9889054       -27.87901
1.42                   0.9888136       -28.02289
1.424                  0.9887188         -28.168
1.428                  0.9886206       -28.31435
1.432                  0.9885188       -28.46196
1.436                  0.9884126       -28.61084
1.44                   0.9883019         -28.761
1.444                  0.9881861       -28.91244
1.448                   0.988065        -29.0652
1.452                  0.9879382       -29.21925
1.456                  0.9878051       -29.37462
1.46                   0.9876656       -29.53132
1.464                  0.9875191       -29.68934
1.468                  0.9873653       -29.84868
1.472                  0.9872038       -30.00937
1.476                  0.9870343       -30.17139
1.48                   0.9868561       -30.33475
1.484                  0.9866694       -30.49945
1.488                  0.9864732        -30.6655
1.492                  0.9862676       -30.83289
1.496                  0.9860522       -31.00161
1.5                    0.9858267       -31.17169
1.504                  0.9855906       -31.34309
1.508                  0.9853436       -31.51584
1.512                  0.9850857        -31.6899
1.516                  0.9848163       -31.86531
1.52                   0.9845353       -32.04204
1.524                  0.9842425       -32.22009
1.528                  0.9839376       -32.39945
1.532                  0.9836202       -32.58013
1.536                  0.9832905       -32.76211
1.54                   0.9829479        -32.9454
1.544                  0.9825925       -33.12997
1.548                  0.9822242       -33.31584
1.552                  0.9818428       -33.50298
1.556                  0.9814479       -33.69142
1.56                   0.9810398       -33.88112
1.564                  0.9806183       -34.07209
1.568                  0.9801832       -34.26433
1.572                  0.9797347       -34.45783
1.576                  0.9792726       -34.65258
1.58                    0.978797       -34.84859
1.584                  0.9783079       -35.04585
1.588                  0.9778054       -35.24435
1.592                  0.9772895        -35.4441
1.596                  0.9767601       -35.64511
1.6                    0.9762175       -35.84736
1.604                  0.9756616       -36.05086
1.608                  0.9750928       -36.25561
1.612                   0.974511       -36.46161
1.616                  0.9739164       -36.66888
1.62                   0.9733092       -36.87741
1.624                  0.9726895       -37.08722
1.628                  0.9720577       -37.29831
1.632                  0.9714136        -37.5107
1.636                  0.9707577       -37.72438
1.64                   0.9700902       -37.93939
1.644                  0.9694112       -38.15573
1.648                  0.9687209       -38.37341
1.652                  0.9680195       -38.59246
1.656                  0.9673075       -38.81291
1.66                   0.9665848       -39.03476
1.664                  0.9658517       -39.25805
1.668                  0.9651086       -39.48279
1.672                  0.9643555       -39.70902
1.676                  0.9635928       -39.93677
1.68                   0.9628206       -40.16606
1.684                  0.9620391       -40.39693
1.688                  0.9612486       -40.62942
1.692                  0.9604491       -40.86357
1.696                   0.959641        -41.0994
1.7                    0.9588243       -41.33697
1.704                   0.957999       -41.57633
1.708                  0.9571655       -41.81751
1.712                  0.9563239       -42.06055
1.716                  0.9554742       -42.30552
1.72                   0.9546164       -42.55247
1.724                  0.9537505       -42.80144
1.728                  0.9528769        -43.0525
1.732                  0.9519949        -43.3057
1.736                  0.9511051        -43.5611
1.74                   0.9502069       -43.81876
1.744                  0.9493008       -44.07874
1.748                  0.9483863       -44.34112
1.752                   0.947463       -44.60595
1.756                  0.9465312       -44.87332
1.76                   0.9455903       -45.14327
1.764                  0.9446402       -45.41589
1.768                  0.9436806       -45.69125
1.772                   0.942711       -45.96942
1.776                   0.941731       -46.25049
1.78                   0.9407402       -46.53452
1.784                  0.9397385       -46.82158
1.788                  0.9387247       -47.11178
1.792                  0.9376987       -47.40518
1.796                  0.9366598       -47.70185
1.8                    0.9356074       -48.00189
1.804                  0.9345407       -48.30537
1.808                  0.9334589       -48.61239
1.812                  0.9323614       -48.92301
1.816                  0.9312473       -49.23733
1.82                   0.9301157       -49.55542
1.824                  0.9289657       -49.87738
1.828                  0.9277964       -50.20328
1.832                  0.9266068       -50.53321
1.836                  0.9253958       -50.86726
1.84                   0.9241624        -51.2055
1.844                  0.9229054       -51.54803
1.848                  0.9216237       -51.89492
1.852                  0.9203162       -52.24626
1.856                  0.9189814       -52.60214
1.86                   0.9176181       -52.96262
1.864                  0.9162254       -53.32779
1.868                  0.9148013       -53.69775
1.872                  0.9133451       -54.07255
1.876                   0.911855        -54.4523
1.88                   0.9103295       -54.83706
1.884                  0.9087674       -55.22691
1.888                  0.9071672       -55.62193
1.892                  0.9055272       -56.02219
1.896                  0.9038461       -56.42777
1.9                    0.9021222       -56.83874
1.904                   0.900354       -57.25519
1.908                  0.8985399       -57.67716
1.912                  0.8966784       -58.10476
1.916                  0.8947677       -58.53804
1.92                   0.8928065       -58.97705
1.924                  0.8907929       -59.42189
1.928                  0.8887254       -59.87262
1.932                  0.8866024       -60.32929
1.936                  0.8844223       -60.79198
1.94                   0.8821833       -61.26076
1.944                  0.8798841       -61.73568
1.948                  0.8775229        -62.2168
1.952                   0.875098        -62.7042
1.956                  0.8726081       -63.19793
1.96                   0.8700515       -63.69805
1.964                  0.8674266       -64.20463
1.968                  0.8647319       -64.71772
1.972                  0.8619661       -65.23737
1.976                  0.8591274       -65.76367
1.98                   0.8562145       -66.29665
1.984                  0.8532261       -66.83639
1.988                  0.8501607       -67.38294
1.992                  0.8470169       -67.93636
1.996                  0.8437934       -68.49671
2                      0.8404889       -69.06407
2.004                  0.8371024       -69.63846
2.008                  0.8336324       -70.21996
2.012                  0.8300781       -70.80863
2.016                  0.8264379       -71.40456
2.02                   0.8227112        -72.0078
2.024                   0.818897       -72.61839
2.028                  0.8149942       -73.23643
2.032                  0.8110018       -73.86197
2.036                  0.8069193       -74.49511
2.04                   0.8027456       -75.13589
2.044                  0.7984804        -75.7844
2.048                  0.7941229       -76.44073
2.052                  0.7896724       -77.10495
2.056                  0.7851286       -77.77715
2.06                    0.780491       -78.45741
2.064                  0.7757592       -79.14584
2.068                  0.7709329       -79.84252
2.072                  0.7660122       -80.54754
2.076                  0.7609967       -81.26104
2.08                   0.7558865        -81.9831
2.084                  0.7506814       -82.71385
2.088                  0.7453818       -83.45342
2.092                  0.7399879        -84.2019
2.096                  0.7344999       -84.95948
2.1                    0.7289183       -85.72625
2.104                  0.7232435       -86.50237
2.108                   0.717476       -87.28802
2.112                  0.7116165       -88.08333
2.116                  0.7056659        -88.8885
2.12                   0.6996251       -89.70371
2.124                  0.6934948       -90.52914
2.128                  0.6872763       -91.36499
2.132                  0.6809706        -92.2115
2.136                  0.6745792       -93.06888
2.14                   0.6681032       -93.93735
2.144                  0.6615445       -94.81719
2.148                  0.6549041       -95.70864
2.152                  0.6481843         -96.612
2.156                  0.6413865       -97.52757
2.16                   0.6345129       -98.45566
2.164                  0.6275656       -99.39658
2.168                  0.6205467       -100.3507
2.172                  0.6134585       -101.3184
2.176                  0.6063037       -102.3001
2.18                   0.5990845       -103.2961
2.184                   0.591804        -104.307
2.188                  0.5844649       -105.3331
2.192                  0.5770702        -106.375
2.196                  0.5696232       -107.4331
2.2                    0.5621273       -108.5081
2.204                  0.5545857       -109.6005
2.208                  0.5470024       -110.7109
2.212                  0.5393811       -111.8399
2.216                  0.5317258       -112.9883
2.22                   0.5240407       -114.1567
2.224                  0.5163302       -115.3459
2.228                  0.5085991       -116.5566
2.232                  0.5008521       -117.7898
2.236                  0.4930941       -119.0463
2.24                   0.4853306        -120.327
2.244                   0.477567       -121.6329
2.248                  0.4698092        -122.965
2.252                  0.4620631       -124.3244
2.256                  0.4543351       -125.7122
2.26                   0.4466318       -127.1296
2.264                  0.4389601       -128.5777
2.268                  0.4313272       -130.0578
2.272                  0.4237407       -131.5714
2.276                  0.4162085       -133.1195
2.28                   0.4087389       -134.7038
2.284                  0.4013405       -136.3257
2.288                  0.3940222       -137.9864
2.292                  0.3867936       -139.6877
2.296                  0.3796644       -141.4308
2.3                    0.3726449       -143.2174
2.304                  0.3657457       -145.0489
2.308                  0.3589778       -146.9267
2.312                  0.3523529       -148.8521
2.316                  0.3458825       -150.8266
2.32                   0.3395791       -152.8512
2.324                  0.3334552        -154.927
2.328                  0.3275238       -157.0548
2.332                  0.3217979       -159.2354
2.336                   0.316291        -161.469
2.34                   0.3110166       -163.7558
2.344                  0.3059882       -166.0956
2.348                  0.3012192       -168.4876
2.352                  0.2967231       -170.9309