! TOUCHSTONE file generated by CST MICROWAVE STUDIO
! Date and time: Thu May 12 15:28:14 2022
! Project name: AppElm_antenne_dipole_FR4.cst
! Parameters = {L=38.8; e=0.035; f=2.45e+09; h=1.6; i=0.8; l1=4.4; lambda=122.449; ls=30; wl=1.7; ws=80}
! Header version: 2018
! Port assignment regex: !\s*Touchstone port\s*([0-9]+)\s*=\s*(CST MWS port|CST DS port)\s*([0-9]+|Zmin|Zmax)\s*\(\"(.*)\"\)(\s*mode\s*([0-9]+))?.*
! Touchstone port assignment:
! Touchstone port 1 = CST MWS port 1 ("")
# GHz S MA R 50
0                      0.9985722              -0
0.004                  0.9985734     -0.05360237
0.008                  0.9985768       -0.107213
0.012                  0.9985826        -0.16084
0.016                  0.9985906      -0.2144916
0.02                    0.998601      -0.2681759
0.024                  0.9986134      -0.3219008
0.028                  0.9986282      -0.3756742
0.032                  0.9986451      -0.4295038
0.036                  0.9986641      -0.4833973
0.04                    0.998685      -0.5373618
0.044                  0.9987079      -0.5914047
0.048                  0.9987327      -0.6455328
0.052                  0.9987594      -0.6997529
0.056                  0.9987877      -0.7540711
0.06                   0.9988176       -0.808494
0.064                   0.998849      -0.8630269
0.068                   0.998882      -0.9176756
0.072                  0.9989161      -0.9724452
0.076                  0.9989516       -1.027341
0.08                    0.998988       -1.082366
0.084                  0.9990255       -1.137526
0.088                  0.9990638       -1.192823
0.092                  0.9991029       -1.248262
0.096                  0.9991426       -1.303845
0.1                    0.9991827       -1.359574
0.104                  0.9992231       -1.415451
0.108                  0.9992639       -1.471479
0.112                  0.9993046       -1.527658
0.116                  0.9993452       -1.583989
0.12                   0.9993858       -1.640472
0.124                  0.9994261       -1.697108
0.128                  0.9994657       -1.753895
0.132                   0.999505       -1.810833
0.136                  0.9995435        -1.86792
0.14                   0.9995811       -1.925156
0.144                  0.9996179       -1.982536
0.148                  0.9996534        -2.04006
0.152                  0.9996879       -2.097723
0.156                  0.9997208       -2.155524
0.16                   0.9997526       -2.213457
0.164                  0.9997828       -2.271519
0.168                  0.9998114       -2.329705
0.172                  0.9998382       -2.388012
0.176                  0.9998632       -2.446433
0.18                   0.9998863       -2.504964
0.184                  0.9999075         -2.5636
0.188                  0.9999267       -2.622333
0.192                  0.9999438       -2.681159
0.196                  0.9999586       -2.740071
0.2                    0.9999713       -2.799063
0.204                  0.9999815       -2.858129
0.208                  0.9999897       -2.917261
0.212                  0.9999955       -2.976453
0.216                  0.9999989       -3.035698
0.22                           1       -3.094989
0.224                  0.9999986        -3.15432
0.228                  0.9999949       -3.213682
0.232                  0.9999889       -3.273069
0.236                  0.9999804       -3.332475
0.24                   0.9999696       -3.391893
0.244                  0.9999567       -3.451315
0.248                  0.9999414       -3.510735
0.252                  0.9999238       -3.570146
0.256                   0.999904       -3.629541
0.26                   0.9998823       -3.688916
0.264                  0.9998584       -3.748263
0.268                  0.9998326       -3.807577
0.272                  0.9998049       -3.866853
0.276                  0.9997755       -3.926084
0.28                   0.9997441       -3.985266
0.284                  0.9997111       -4.044394
0.288                  0.9996769       -4.103464
0.292                   0.999641        -4.16247
0.296                  0.9996039       -4.221412
0.3                    0.9995656       -4.280283
0.304                  0.9995262       -4.339081
0.308                  0.9994859       -4.397805
0.312                  0.9994448       -4.456451
0.316                  0.9994029       -4.515019
0.32                   0.9993606       -4.573506
0.324                  0.9993176       -4.631911
0.328                  0.9992748       -4.690233
0.332                  0.9992314       -4.748476
0.336                  0.9991882       -4.806635
0.34                   0.9991451       -4.864713
0.344                  0.9991022       -4.922713
0.348                  0.9990597       -4.980635
0.352                  0.9990178       -5.038482
0.356                  0.9989764       -5.096256
0.36                    0.998936        -5.15396
0.364                  0.9988965       -5.211597
0.368                  0.9988579       -5.269174
0.372                  0.9988206       -5.326691
0.376                  0.9987847       -5.384156
0.38                   0.9987501       -5.441573
0.384                   0.998717       -5.498949
0.388                  0.9986856       -5.556287
0.392                  0.9986559       -5.613595
0.396                  0.9986281        -5.67088
0.4                    0.9986021       -5.728149
0.404                  0.9985783       -5.785409
0.408                  0.9985565       -5.842667
0.412                  0.9985368       -5.899931
0.416                  0.9985194        -5.95721
0.42                   0.9985042       -6.014512
0.424                  0.9984916       -6.071843
0.428                  0.9984812       -6.129215
0.432                  0.9984732       -6.186635
0.436                  0.9984677       -6.244113
0.44                   0.9984647       -6.301657
0.444                  0.9984642       -6.359276
0.448                  0.9984659       -6.416982
0.452                  0.9984704       -6.474779
0.456                  0.9984773       -6.532681
0.46                   0.9984866       -6.590693
0.464                  0.9984982       -6.648828
0.468                  0.9985125       -6.707091
0.472                  0.9985289       -6.765495
0.476                  0.9985475       -6.824046
0.48                   0.9985685       -6.882753
0.484                  0.9985915       -6.941625
0.488                  0.9986168       -7.000668
0.492                  0.9986439       -7.059894
0.496                  0.9986731       -7.119306
0.5                    0.9987039       -7.178915
0.504                  0.9987366       -7.238726
0.508                  0.9987708       -7.298748
0.512                  0.9988063       -7.358985
0.516                  0.9988435       -7.419443
0.52                   0.9988818       -7.480131
0.524                  0.9989213        -7.54105
0.528                  0.9989616       -7.602209
0.532                  0.9990028       -7.663607
0.536                  0.9990448       -7.725253
0.54                   0.9990873       -7.787149
0.544                  0.9991303       -7.849297
0.548                  0.9991733       -7.911703
0.552                  0.9992167       -7.974365
0.556                    0.99926       -8.037287
0.56                    0.999303       -8.100468
0.564                  0.9993459       -8.163913
0.568                   0.999388       -8.227617
0.572                  0.9994297       -8.291585
0.576                  0.9994704       -8.355813
0.58                   0.9995103       -8.420302
0.584                  0.9995491       -8.485047
0.588                  0.9995866        -8.55005
0.592                  0.9996228       -8.615304
0.596                  0.9996575        -8.68081
0.6                    0.9996905       -8.746562
0.604                  0.9997216        -8.81256
0.608                   0.999751       -8.878794
0.612                  0.9997783       -8.945265
0.616                  0.9998035       -9.011964
0.62                   0.9998264       -9.078888
0.624                  0.9998472       -9.146029
0.628                  0.9998653       -9.213384
0.632                  0.9998809       -9.280944
0.636                  0.9998939       -9.348703
0.64                   0.9999045       -9.416654
0.644                  0.9999121       -9.484793
0.648                  0.9999168        -9.55311
0.652                  0.9999188       -9.621597
0.656                   0.999918        -9.69025
0.66                   0.9999141       -9.759057
0.664                  0.9999075       -9.828012
0.668                  0.9998978       -9.897108
0.672                  0.9998851       -9.966337
0.676                  0.9998695       -10.03569
0.68                    0.999851       -10.10516
0.684                  0.9998295       -10.17474
0.688                  0.9998052       -10.24442
0.692                  0.9997781       -10.31419
0.696                   0.999748       -10.38405
0.7                    0.9997152       -10.45399
0.704                  0.9996798         -10.524
0.708                  0.9996418       -10.59408
0.712                  0.9996013       -10.66421
0.716                  0.9995583        -10.7344
0.72                    0.999513       -10.80463
0.724                  0.9994654        -10.8749
0.728                  0.9994156       -10.94521
0.732                   0.999364       -11.01554
0.736                  0.9993103       -11.08591
0.74                   0.9992551       -11.15629
0.744                  0.9991981       -11.22669
0.748                  0.9991397        -11.2971
0.752                  0.9990799       -11.36752
0.756                  0.9990191       -11.43796
0.76                   0.9989572        -11.5084
0.764                  0.9988943       -11.57884
0.768                  0.9988308       -11.64929
0.772                  0.9987668       -11.71975
0.776                  0.9987025        -11.7902
0.78                   0.9986379       -11.86067
0.784                  0.9985732       -11.93114
0.788                  0.9985088       -12.00162
0.792                  0.9984446       -12.07211
0.796                  0.9983809       -12.14261
0.8                    0.9983178       -12.21314
0.804                  0.9982555       -12.28368
0.808                  0.9981941       -12.35425
0.812                  0.9981339       -12.42486
0.816                   0.998075        -12.4955
0.82                   0.9980174       -12.56619
0.824                  0.9979616       -12.63693
0.828                  0.9979073       -12.70773
0.832                  0.9978548        -12.7786
0.836                  0.9978044       -12.84954
0.84                   0.9977561       -12.92057
0.844                    0.99771       -12.99169
0.848                  0.9976662       -13.06291
0.852                  0.9976249       -13.13425
0.856                   0.997586       -13.20572
0.86                   0.9975498       -13.27731
0.864                  0.9975163       -13.34906
0.868                  0.9974854       -13.42096
0.872                  0.9974575       -13.49303
0.876                  0.9974323       -13.56529
0.88                   0.9974101       -13.63774
0.884                  0.9973908       -13.71039
0.888                  0.9973744       -13.78326
0.892                   0.997361       -13.85637
0.896                  0.9973505       -13.92972
0.9                    0.9973428       -14.00333
0.904                  0.9973382        -14.0772
0.908                  0.9973364       -14.15136
0.912                  0.9973375       -14.22582
0.916                  0.9973412       -14.30058
0.92                   0.9973478       -14.37566
0.924                  0.9973569       -14.45108
0.928                  0.9973686       -14.52684
0.932                  0.9973827       -14.60295
0.936                  0.9973991       -14.67944
0.94                   0.9974178        -14.7563
0.944                  0.9974386       -14.83356
0.948                  0.9974613       -14.91121
0.952                  0.9974858       -14.98928
0.956                   0.997512       -15.06777
0.96                   0.9975398       -15.14669
0.964                  0.9975688       -15.22605
0.968                  0.9975991       -15.30586
0.972                  0.9976302       -15.38613
0.976                  0.9976622       -15.46686
0.98                    0.997695       -15.54806
0.984                   0.997728       -15.62974
0.988                  0.9977614        -15.7119
0.992                  0.9977946       -15.79455
0.996                  0.9978278        -15.8777
1                      0.9978605       -15.96134
1.004                  0.9978926       -16.04548
1.008                  0.9979239       -16.13013
1.012                  0.9979543       -16.21528
1.016                  0.9979832       -16.30094
1.02                   0.9980109       -16.38711
1.024                  0.9980369       -16.47378
1.028                   0.998061       -16.56098
1.032                  0.9980828       -16.64866
1.036                  0.9981026       -16.73685
1.04                   0.9981198       -16.82556
1.044                  0.9981343       -16.91476
1.048                  0.9981459       -17.00446
1.052                  0.9981545       -17.09467
1.056                  0.9981599       -17.18535
1.06                   0.9981618       -17.27652
1.064                  0.9981602       -17.36818
1.068                  0.9981549        -17.4603
1.072                  0.9981458       -17.55289
1.076                  0.9981326       -17.64595
1.08                   0.9981152       -17.73944
1.084                  0.9980935       -17.83337
1.088                  0.9980675       -17.92776
1.092                  0.9980371       -18.02259
1.096                   0.998002       -18.11783
1.1                    0.9979624       -18.21348
1.104                  0.9979179       -18.30954
1.108                  0.9978688       -18.40598
1.112                  0.9978148       -18.50281
1.116                   0.997756       -18.60002
1.12                   0.9976924       -18.69761
1.124                   0.997624       -18.79552
1.128                  0.9975506       -18.89382
1.132                  0.9974724       -18.99244
1.136                  0.9973893       -19.09139
1.14                   0.9973015       -19.19067
1.144                   0.997209       -19.29025
1.148                  0.9971119       -19.39015
1.152                  0.9970101       -19.49033
1.156                  0.9969039       -19.59081
1.16                   0.9967934       -19.69156
1.164                  0.9966787       -19.79259
1.168                  0.9965597       -19.89388
1.172                  0.9964367       -19.99544
1.176                    0.99631       -20.09724
1.18                   0.9961794        -20.1993
1.184                  0.9960454       -20.30161
1.188                   0.995908       -20.40415
1.192                  0.9957675       -20.50693
1.196                   0.995624       -20.60994
1.2                    0.9954777       -20.71318
1.204                  0.9953287       -20.81666
1.208                  0.9951774       -20.92037
1.212                  0.9950241        -21.0243
1.216                  0.9948687       -21.12847
1.22                   0.9947116       -21.23287
1.224                   0.994553       -21.33751
1.228                  0.9943932       -21.44239
1.232                  0.9942324       -21.54751
1.236                  0.9940707       -21.65288
1.24                   0.9939084       -21.75851
1.244                  0.9937459       -21.86439
1.248                  0.9935831       -21.97055
1.252                  0.9934205       -22.07699
1.256                  0.9932583       -22.18371
1.26                   0.9930966       -22.29074
1.264                  0.9929357       -22.39807
1.268                  0.9927758       -22.50573
1.272                  0.9926171       -22.61372
1.276                  0.9924597       -22.72207
1.28                   0.9923039       -22.83078
1.284                  0.9921499       -22.93986
1.288                  0.9919978       -23.04935
1.292                  0.9918477       -23.15925
1.296                  0.9916999       -23.26959
1.3                    0.9915544       -23.38037
1.304                  0.9914115       -23.49163
1.308                  0.9912712       -23.60337
1.312                  0.9911335       -23.71562
1.316                  0.9909987       -23.82841
1.32                   0.9908665       -23.94175
1.324                  0.9907374       -24.05567
1.328                  0.9906113       -24.17018
1.332                  0.9904882       -24.28532
1.336                  0.9903679       -24.40109
1.34                   0.9902507       -24.51754
1.344                  0.9901364       -24.63468
1.348                   0.990025       -24.75253
1.352                  0.9899164       -24.87113
1.356                  0.9898106       -24.99048
1.36                   0.9897075       -25.11063
1.364                  0.9896071       -25.23159
1.368                   0.989509       -25.35339
1.372                  0.9894132       -25.47604
1.376                  0.9893195       -25.59959
1.38                   0.9892277       -25.72404
1.384                  0.9891377       -25.84943
1.388                  0.9890495       -25.97577
1.392                  0.9889624       -26.10309
1.396                  0.9888763       -26.23141
1.4                    0.9887912       -26.36076
1.404                  0.9887066       -26.49115
1.408                  0.9886222       -26.62261
1.412                  0.9885378       -26.75515
1.416                  0.9884532        -26.8888
1.42                   0.9883678       -27.02358
1.424                  0.9882813        -27.1595
1.428                  0.9881936       -27.29658
1.432                  0.9881042       -27.43484
1.436                  0.9880126        -27.5743
1.44                   0.9879186       -27.71497
1.444                  0.9878218       -27.85686
1.448                  0.9877217       -27.99999
1.452                  0.9876181       -28.14438
1.456                  0.9875104       -28.29002
1.46                   0.9873983       -28.43694
1.464                  0.9872813       -28.58515
1.468                  0.9871591       -28.73465
1.472                  0.9870313       -28.88546
1.476                  0.9868974       -29.03757
1.48                    0.986757         -29.191
1.484                  0.9866098       -29.34575
1.488                  0.9864553       -29.50183
1.492                  0.9862931       -29.65924
1.496                  0.9861229       -29.81799
1.5                    0.9859442       -29.97806
1.504                  0.9857566       -30.13948
1.508                  0.9855599       -30.30223
1.512                  0.9853536       -30.46632
1.516                  0.9851374       -30.63175
1.52                   0.9849108       -30.79851
1.524                  0.9846736        -30.9666
1.528                  0.9844255       -31.13602
1.532                  0.9841662       -31.30677
1.536                  0.9838953       -31.47884
1.54                   0.9836125       -31.65222
1.544                  0.9833178       -31.82692
1.548                  0.9830106       -32.00293
1.552                  0.9826911       -32.18023
1.556                  0.9823586       -32.35882
1.56                   0.9820131       -32.53871
1.564                  0.9816545       -32.71989
1.568                  0.9812825       -32.90234
1.572                  0.9808972       -33.08605
1.576                  0.9804981       -33.27103
1.58                   0.9800854       -33.45727
1.584                  0.9796588       -33.64476
1.588                  0.9792184       -33.83349
1.592                   0.978764       -34.02346
1.596                  0.9782956       -34.21467
1.6                    0.9778133       -34.40712
1.604                  0.9773171       -34.60077
1.608                  0.9768067       -34.79566
1.612                  0.9762827       -34.99177
1.616                  0.9757445        -35.1891
1.62                   0.9751927       -35.38764
1.624                  0.9746272       -35.58741
1.628                   0.974048       -35.78839
1.632                  0.9734554       -35.99059
1.636                  0.9728494       -36.19402
1.64                   0.9722303       -36.39866
1.644                  0.9715981       -36.60455
1.648                   0.970953       -36.81167
1.652                  0.9702953       -37.02004
1.656                   0.969625       -37.22967
1.66                   0.9689424       -37.44057
1.664                  0.9682478       -37.65275
1.668                  0.9675412       -37.86623
1.672                  0.9668231       -38.08101
1.676                  0.9660935       -38.29714
1.68                   0.9653527        -38.5146
1.684                   0.964601       -38.73344
1.688                  0.9638383       -38.95368
1.692                  0.9630651       -39.17534
1.696                  0.9622818       -39.39843
1.7                    0.9614881         -39.623
1.704                  0.9606847       -39.84909
1.708                  0.9598716       -40.07671
1.712                  0.9590489       -40.30591
1.716                  0.9582169       -40.53672
1.72                   0.9573758       -40.76917
1.724                  0.9565254       -41.00333
1.728                  0.9556665       -41.23922
1.732                  0.9547984       -41.47688
1.736                  0.9539219       -41.71638
1.74                   0.9530366       -41.95774
1.744                  0.9521431       -42.20104
1.748                  0.9512407       -42.44633
1.752                  0.9503299       -42.69364
1.756                  0.9494105       -42.94305
1.76                   0.9484825       -43.19462
1.764                  0.9475459       -43.44838
1.768                  0.9466004       -43.70442
1.772                  0.9456459        -43.9628
1.776                  0.9446822       -44.22359
1.78                   0.9437093       -44.48684
1.784                  0.9427268       -44.75264
1.788                  0.9417342       -45.02105
1.792                  0.9407315       -45.29213
1.796                   0.939718       -45.56597
1.8                    0.9386937       -45.84263
1.804                  0.9376578        -46.1222
1.808                    0.93661       -46.40475
1.812                  0.9355496       -46.69035
1.816                  0.9344762       -46.97908
1.82                   0.9333892       -47.27102
1.824                  0.9322877       -47.56626
1.828                  0.9311712       -47.86487
1.832                  0.9300389       -48.16692
1.836                  0.9288899       -48.47252
1.84                   0.9277236       -48.78172
1.844                   0.926539       -49.09461
1.848                  0.9253351       -49.41129
1.852                  0.9241111       -49.73183
1.856                  0.9228657        -50.0563
1.86                   0.9215982       -50.38479
1.864                  0.9203075       -50.71739
1.868                  0.9189922       -51.05417
1.872                  0.9176513       -51.39521
1.876                  0.9162836        -51.7406
1.88                   0.9148878       -52.09042
1.884                  0.9134629       -52.44473
1.888                  0.9120073       -52.80363
1.892                  0.9105196       -53.16718
1.896                  0.9089988       -53.53548
1.9                    0.9074432       -53.90859
1.904                  0.9058515       -54.28658
1.908                  0.9042223       -54.66954
1.912                  0.9025539       -55.05753
1.916                   0.900845       -55.45064
1.92                    0.899094       -55.84892
1.924                  0.8972995       -56.25246
1.928                  0.8954598       -56.66132
1.932                  0.8935735       -57.07556
1.936                  0.8916387       -57.49526
1.94                   0.8896543       -57.92048
1.944                  0.8876182        -58.3513
1.948                  0.8855291       -58.78777
1.952                  0.8833855       -59.22995
1.956                  0.8811855       -59.67791
1.96                   0.8789277       -60.13171
1.964                  0.8766104       -60.59141
1.968                  0.8742321       -61.05708
1.972                  0.8717911       -61.52876
1.976                  0.8692859       -62.00652
1.98                    0.866715       -62.49042
1.984                  0.8640768        -62.9805
1.988                  0.8613699       -63.47684
1.992                  0.8585924       -63.97948
1.996                  0.8557434       -64.48848
2                      0.8528209        -65.0039
2.004                  0.8498239       -65.52576
2.008                  0.8467507       -66.05418
2.012                  0.8436001       -66.58916
2.016                  0.8403708       -67.13077
2.02                   0.8370614       -67.67907
2.024                  0.8336708       -68.23412
2.028                  0.8301975       -68.79597
2.032                  0.8266405       -69.36468
2.036                  0.8229988        -69.9403
2.04                   0.8192711        -70.5229
2.044                  0.8154565       -71.11252
2.048                  0.8115542       -71.70924
2.052                  0.8075629       -72.31312
2.056                   0.803482       -72.92422
2.06                   0.7993106        -73.5426
2.064                  0.7950479       -74.16834
2.068                  0.7906934       -74.80151
2.072                  0.7862463       -75.44218
2.076                  0.7817062       -76.09042
2.08                   0.7770726       -76.74631
2.084                  0.7723448       -77.40993
2.088                  0.7675228       -78.08139
2.092                  0.7626062       -78.76075
2.096                  0.7575947       -79.44811
2.1                    0.7524883       -80.14359
2.104                   0.747287       -80.84728
2.108                  0.7419906       -81.55927
2.112                  0.7365994       -82.27972
2.116                  0.7311135       -83.00869
2.12                   0.7255333       -83.74635
2.124                  0.7198591       -84.49282
2.128                  0.7140912       -85.24826
2.132                  0.7082304       -86.01277
2.136                  0.7022771       -86.78655
2.14                   0.6962323       -87.56976
2.144                  0.6900964       -88.36255
2.148                  0.6838707       -89.16512
2.152                  0.6775559        -89.9777
2.156                  0.6711532       -90.80043
2.16                   0.6646639       -91.63358
2.164                  0.6580893       -92.47736
2.168                  0.6514307       -93.33202
2.172                  0.6446896       -94.19783
2.176                  0.6378678       -95.07504
2.18                   0.6309667       -95.96395
2.184                  0.6239886       -96.86488
2.188                  0.6169351       -97.77816
2.192                  0.6098084       -98.70411
2.196                  0.6026107       -99.64313
2.2                    0.5953443       -100.5956
2.204                  0.5880117       -101.5619
2.208                  0.5806155       -102.5425
2.212                  0.5731583       -103.5378
2.216                  0.5656431       -104.5484
2.22                   0.5580728       -105.5748
2.224                  0.5504506       -106.6175
2.228                  0.5427798       -107.6771
2.232                  0.5350638       -108.7542
2.236                  0.5273065       -109.8496
2.24                   0.5195113       -110.9638
2.244                  0.5116825       -112.0976
2.248                   0.503824       -113.2518
2.252                  0.4959404       -114.4273
2.256                  0.4880363       -115.6249
2.26                   0.4801163       -116.8455
2.264                  0.4721856       -118.0902
2.268                  0.4642494         -119.36
2.272                  0.4563131       -120.6559
2.276                  0.4483826       -121.9792
2.28                    0.440464        -123.331
2.284                  0.4325635       -124.7127
2.288                   0.424688       -126.1255
2.292                  0.4168442        -127.571
2.296                  0.4090396       -129.0507
2.3                    0.4012819        -130.566
2.304                  0.3935791       -132.1185
2.308                  0.3859397       -133.7101
2.312                  0.3783727       -135.3424
2.316                  0.3708874       -137.0172
2.32                   0.3634935       -138.7364
2.324                  0.3562015       -140.5018
2.328                  0.3490221       -142.3153
2.332                  0.3419664       -144.1789
2.336                  0.3350464       -146.0944
2.34                   0.3282744       -148.0636
2.344                  0.3216632       -150.0884
2.348                  0.3152261       -152.1703
2.352                  0.3089768       -154.3108