! TOUCHSTONE file generated by CST MICROWAVE STUDIO
! Date and time: Thu May 12 15:28:15 2022
! Project name: AppElm_antenne_dipole_FR4.cst
! Parameters = {L=38.8; e=0.035; f=2.45e+09; h=1.6; i=0.8; l1=4.6; lambda=122.449; ls=30; wl=1.7; ws=80}
! Header version: 2018
! Port assignment regex: !\s*Touchstone port\s*([0-9]+)\s*=\s*(CST MWS port|CST DS port)\s*([0-9]+|Zmin|Zmax)\s*\(\"(.*)\"\)(\s*mode\s*([0-9]+))?.*
! Touchstone port assignment:
! Touchstone port 1 = CST MWS port 1 ("")
# GHz S MA R 50
0                      0.9988389              -0
0.004                  0.9988398     -0.05480045
0.008                  0.9988428       -0.109608
0.012                  0.9988476      -0.1644297
0.016                  0.9988544      -0.2192728
0.02                    0.998863       -0.274144
0.024                  0.9988736      -0.3290503
0.028                  0.9988858      -0.3839986
0.032                  0.9989001      -0.4389954
0.036                  0.9989159      -0.4940474
0.04                   0.9989335      -0.5491608
0.044                  0.9989526       -0.604342
0.048                  0.9989733      -0.6595967
0.052                  0.9989956      -0.7149308
0.056                  0.9990193      -0.7703499
0.06                   0.9990442      -0.8258591
0.064                  0.9990706      -0.8814635
0.068                   0.999098       -0.937168
0.072                  0.9991265      -0.9929768
0.076                  0.9991559       -1.048894
0.08                   0.9991864       -1.104923
0.084                  0.9992176       -1.161069
0.088                  0.9992494       -1.217333
0.092                  0.9992818       -1.273719
0.096                  0.9993147       -1.330229
0.1                     0.999348       -1.386866
0.104                  0.9993815        -1.44363
0.108                  0.9994152       -1.500524
0.112                  0.9994489       -1.557548
0.116                  0.9994824       -1.614704
0.12                   0.9995159        -1.67199
0.124                  0.9995489       -1.729408
0.128                  0.9995815       -1.786956
0.132                  0.9996136       -1.844634
0.136                  0.9996451        -1.90244
0.14                   0.9996758       -1.960374
0.144                  0.9997056       -2.018433
0.148                  0.9997346       -2.076615
0.152                  0.9997623       -2.134918
0.156                   0.999789       -2.193337
0.16                   0.9998145       -2.251871
0.164                  0.9998385       -2.310516
0.168                  0.9998612       -2.369269
0.172                  0.9998824       -2.428124
0.176                  0.9999021       -2.487077
0.18                     0.99992       -2.546126
0.184                  0.9999364       -2.605263
0.188                  0.9999508       -2.664486
0.192                  0.9999636       -2.723788
0.196                  0.9999745       -2.783164
0.2                    0.9999835        -2.84261
0.204                  0.9999905       -2.902118
0.208                  0.9999957       -2.961684
0.212                  0.9999988       -3.021303
0.216                  0.9999999       -3.080967
0.22                   0.9999992       -3.140672
0.224                  0.9999961       -3.200412
0.228                  0.9999914        -3.26018
0.232                  0.9999844        -3.31997
0.236                  0.9999757       -3.379779
0.24                   0.9999648       -3.439598
0.244                  0.9999521       -3.499423
0.248                  0.9999376       -3.559248
0.252                  0.9999213       -3.619068
0.256                   0.999903       -3.678878
0.26                   0.9998831       -3.738671
0.264                  0.9998614       -3.798445
0.268                  0.9998382       -3.858193
0.272                  0.9998135       -3.917912
0.276                  0.9997874       -3.977597
0.28                   0.9997598       -4.037245
0.284                  0.9997308        -4.09685
0.288                  0.9997009       -4.156411
0.292                  0.9996697       -4.215924
0.296                  0.9996375       -4.275387
0.3                    0.9996044       -4.334796
0.304                  0.9995705       -4.394149
0.308                   0.999536       -4.453446
0.312                   0.999501       -4.512685
0.316                  0.9994654       -4.571863
0.32                   0.9994295       -4.630982
0.324                  0.9993933        -4.69004
0.328                   0.999357       -4.749038
0.332                  0.9993208       -4.807977
0.336                  0.9992847       -4.866856
0.34                   0.9992489       -4.925678
0.344                  0.9992134       -4.984444
0.348                  0.9991782       -5.043156
0.352                  0.9991438       -5.101817
0.356                  0.9991102        -5.16043
0.36                   0.9990772       -5.218998
0.364                  0.9990451       -5.277523
0.368                  0.9990142       -5.336012
0.372                  0.9989843       -5.394467
0.376                  0.9989557       -5.452893
0.38                   0.9989284       -5.511297
0.384                  0.9989027       -5.569681
0.388                  0.9988783       -5.628054
0.392                  0.9988556        -5.68642
0.396                  0.9988345       -5.744784
0.4                    0.9988153       -5.803156
0.404                  0.9987978        -5.86154
0.408                  0.9987821       -5.919945
0.412                  0.9987683       -5.978376
0.416                  0.9987566       -6.036841
0.42                   0.9987468       -6.095348
0.424                  0.9987392       -6.153904
0.428                  0.9987335       -6.212518
0.432                    0.99873       -6.271197
0.436                  0.9987287        -6.32995
0.44                   0.9987294       -6.388783
0.444                  0.9987323       -6.447705
0.448                  0.9987372       -6.506725
0.452                  0.9987442        -6.56585
0.456                  0.9987534       -6.625089
0.46                   0.9987645       -6.684449
0.464                  0.9987777       -6.743937
0.468                  0.9987928       -6.803563
0.472                  0.9988099       -6.863334
0.476                  0.9988289       -6.923257
0.48                   0.9988496       -6.983339
0.484                  0.9988721       -7.043588
0.488                  0.9988963        -7.10401
0.492                   0.998922       -7.164611
0.496                  0.9989491         -7.2254
0.5                    0.9989777       -7.286383
0.504                  0.9990077       -7.347561
0.508                  0.9990388       -7.408946
0.512                   0.999071       -7.470539
0.516                  0.9991042       -7.532347
0.52                   0.9991382       -7.594373
0.524                   0.999173       -7.656622
0.528                  0.9992084       -7.719099
0.532                  0.9992443       -7.781804
0.536                  0.9992806       -7.844743
0.54                   0.9993172       -7.907917
0.544                  0.9993539       -7.971329
0.548                  0.9993904       -8.034982
0.552                   0.999427       -8.098875
0.556                  0.9994631       -8.163009
0.56                   0.9994989       -8.227387
0.564                  0.9995341       -8.292007
0.568                  0.9995686       -8.356869
0.572                  0.9996023       -8.421973
0.576                  0.9996351       -8.487315
0.58                   0.9996667       -8.552898
0.584                  0.9996972       -8.618717
0.588                  0.9997265       -8.684768
0.592                  0.9997541       -8.751054
0.596                  0.9997805       -8.817565
0.6                    0.9998049       -8.884304
0.604                  0.9998277       -8.951263
0.608                  0.9998486       -9.018438
0.612                  0.9998676       -9.085825
0.616                  0.9998845       -9.153419
0.62                   0.9998993       -9.221218
0.624                  0.9999118       -9.289212
0.628                   0.999922       -9.357398
0.632                  0.9999301       -9.425768
0.636                  0.9999355        -9.49432
0.64                   0.9999387       -9.563043
0.644                  0.9999391       -9.631936
0.648                  0.9999372       -9.700987
0.652                  0.9999327       -9.770193
0.656                  0.9999255       -9.839545
0.66                   0.9999157        -9.90904
0.664                  0.9999034       -9.978665
0.668                  0.9998885       -10.04842
0.672                   0.999871       -10.11829
0.676                  0.9998508       -10.18828
0.68                   0.9998282       -10.25838
0.684                  0.9998031       -10.32857
0.688                  0.9997753       -10.39886
0.692                  0.9997454       -10.46924
0.696                  0.9997129        -10.5397
0.7                    0.9996781       -10.61023
0.704                  0.9996414       -10.68083
0.708                  0.9996023        -10.7515
0.712                  0.9995611       -10.82222
0.716                  0.9995181         -10.893
0.72                   0.9994731       -10.96383
0.724                  0.9994264       -11.03471
0.728                  0.9993781       -11.10563
0.732                  0.9993284       -11.17658
0.736                  0.9992771       -11.24757
0.74                   0.9992245       -11.31859
0.744                  0.9991708       -11.38964
0.748                  0.9991162       -11.46072
0.752                  0.9990606       -11.53183
0.756                  0.9990043       -11.60296
0.76                   0.9989474       -11.67412
0.764                  0.9988901        -11.7453
0.768                  0.9988325       -11.81651
0.772                  0.9987748       -11.88774
0.776                  0.9987171       -11.95901
0.78                   0.9986594        -12.0303
0.784                  0.9986022       -12.10163
0.788                  0.9985453       -12.17299
0.792                  0.9984891       -12.24439
0.796                  0.9984336       -12.31584
0.8                     0.998379       -12.38734
0.804                  0.9983255       -12.45889
0.808                  0.9982731        -12.5305
0.812                  0.9982221       -12.60217
0.816                  0.9981724       -12.67392
0.82                   0.9981244       -12.74575
0.824                   0.998078       -12.81766
0.828                  0.9980333       -12.88967
0.832                  0.9979907       -12.96178
0.836                    0.99795         -13.034
0.84                   0.9979114       -13.10635
0.844                   0.997875       -13.17882
0.848                  0.9978409       -13.25143
0.852                  0.9978091        -13.3242
0.856                  0.9977798       -13.39713
0.86                   0.9977528       -13.47022
0.864                  0.9977285        -13.5435
0.868                  0.9977067       -13.61698
0.872                  0.9976873       -13.69066
0.876                  0.9976707       -13.76455
0.88                   0.9976566       -13.83867
0.884                  0.9976453       -13.91303
0.888                  0.9976365       -13.98765
0.892                  0.9976303       -14.06252
0.896                  0.9976266       -14.13768
0.9                    0.9976256       -14.21311
0.904                   0.997627       -14.28885
0.908                  0.9976308        -14.3649
0.912                   0.997637       -14.44127
0.916                  0.9976454       -14.51797
0.92                   0.9976561       -14.59501
0.924                   0.997669       -14.67241
0.928                  0.9976838       -14.75018
0.932                  0.9977006       -14.82832
0.936                   0.997719       -14.90685
0.94                   0.9977392       -14.98577
0.944                  0.9977609        -15.0651
0.948                  0.9977839       -15.14485
0.952                  0.9978083       -15.22501
0.956                  0.9978336       -15.30561
0.96                   0.9978599       -15.38665
0.964                   0.997887       -15.46813
0.968                  0.9979147       -15.55007
0.972                  0.9979427       -15.63246
0.976                   0.997971       -15.71533
0.98                   0.9979993       -15.79866
0.984                  0.9980272       -15.88247
0.988                  0.9980551       -15.96676
0.992                  0.9980823       -16.05153
0.996                  0.9981089       -16.13678
1                      0.9981345       -16.22253
1.004                   0.998159       -16.30877
1.008                  0.9981821        -16.3955
1.012                  0.9982038       -16.48272
1.016                  0.9982237       -16.57044
1.02                   0.9982417       -16.65865
1.024                  0.9982576       -16.74734
1.028                  0.9982713       -16.83654
1.032                  0.9982826       -16.92621
1.036                  0.9982912       -17.01639
1.04                    0.998297       -17.10702
1.044                  0.9982998       -17.19816
1.048                  0.9982995       -17.28977
1.052                  0.9982959       -17.38184
1.056                  0.9982888       -17.47437
1.06                   0.9982782       -17.56735
1.064                  0.9982638       -17.66084
1.068                  0.9982457       -17.75471
1.072                  0.9982236       -17.84905
1.076                  0.9981974       -17.94383
1.08                   0.9981672       -18.03904
1.084                  0.9981326       -18.13463
1.088                  0.9980938       -18.23069
1.092                  0.9980505       -18.32711
1.096                  0.9980029       -18.42396
1.1                    0.9979508       -18.52119
1.104                  0.9978941       -18.61878
1.108                  0.9978329       -18.71673
1.112                  0.9977673       -18.81508
1.116                   0.997697       -18.91379
1.12                   0.9976222       -19.01283
1.124                   0.997543        -19.1122
1.128                  0.9974592       -19.21189
1.132                   0.997371       -19.31192
1.136                  0.9972785       -19.41226
1.14                   0.9971818        -19.5129
1.144                  0.9970808       -19.61385
1.148                  0.9969757       -19.71509
1.152                  0.9968665       -19.81662
1.156                  0.9967535       -19.91843
1.16                   0.9966368       -20.02051
1.164                  0.9965164       -20.12287
1.168                  0.9963926       -20.22548
1.172                  0.9962653       -20.32836
1.176                  0.9961348        -20.4315
1.18                   0.9960014       -20.53489
1.184                  0.9958652       -20.63853
1.188                  0.9957262       -20.74242
1.192                  0.9955848       -20.84656
1.196                  0.9954411       -20.95096
1.2                    0.9952953       -21.05559
1.204                  0.9951478       -21.16049
1.208                  0.9949986       -21.26563
1.212                  0.9948478       -21.37102
1.216                  0.9946958       -21.47668
1.22                    0.994543        -21.5826
1.224                  0.9943891       -21.68879
1.228                  0.9942349       -21.79525
1.232                  0.9940801       -21.90199
1.236                  0.9939253       -22.00902
1.24                   0.9937704       -22.11635
1.244                   0.993616       -22.22398
1.248                  0.9934619       -22.33194
1.252                  0.9933085       -22.44022
1.256                  0.9931561       -22.54884
1.26                   0.9930047       -22.65781
1.264                  0.9928544       -22.76714
1.268                  0.9927057       -22.87686
1.272                  0.9925585       -22.98697
1.276                  0.9924131        -23.0975
1.28                   0.9922696       -23.20845
1.284                  0.9921283       -23.31985
1.288                   0.991989       -23.43171
1.292                  0.9918521       -23.54405
1.296                  0.9917176        -23.6569
1.3                    0.9915855       -23.77026
1.304                   0.991456       -23.88416
1.308                  0.9913291       -23.99863
1.312                  0.9912052       -24.11368
1.316                  0.9910837       -24.22934
1.32                   0.9909651       -24.34562
1.324                  0.9908492       -24.46255
1.328                  0.9907361       -24.58015
1.332                  0.9906257       -24.69846
1.336                   0.990518       -24.81747
1.34                    0.990413       -24.93724
1.344                  0.9903106       -25.05776
1.348                  0.9902106       -25.17908
1.352                  0.9901129       -25.30121
1.356                  0.9900176       -25.42418
1.36                   0.9899244       -25.54801
1.364                   0.989833       -25.67272
1.368                  0.9897435       -25.79834
1.372                  0.9896557       -25.92488
1.376                  0.9895692       -26.05239
1.38                   0.9894839       -26.18086
1.384                  0.9893995       -26.31033
1.388                  0.9893159       -26.44082
1.392                  0.9892326       -26.57235
1.396                  0.9891496       -26.70495
1.4                    0.9890664       -26.83862
1.404                  0.9889829       -26.97339
1.408                  0.9888985       -27.10928
1.412                  0.9888131        -27.2463
1.416                  0.9887263       -27.38448
1.42                   0.9886378       -27.52384
1.424                  0.9885472       -27.66438
1.428                  0.9884541       -27.80612
1.432                  0.9883583       -27.94908
1.436                  0.9882591       -28.09327
1.44                   0.9881565        -28.2387
1.444                  0.9880498       -28.38539
1.448                  0.9879389       -28.53334
1.452                  0.9878231       -28.68258
1.456                  0.9877022        -28.8331
1.46                   0.9875758       -28.98492
1.464                  0.9874435       -29.13804
1.468                  0.9873048       -29.29246
1.472                  0.9871594        -29.4482
1.476                  0.9870068       -29.60527
1.48                   0.9868469       -29.76365
1.484                  0.9866789       -29.92337
1.488                  0.9865027       -30.08442
1.492                   0.986318       -30.24679
1.496                  0.9861242       -30.41051
1.5                    0.9859209       -30.57555
1.504                  0.9857082       -30.74193
1.508                  0.9854852       -30.90964
1.512                   0.985252       -31.07868
1.516                  0.9850081       -31.24906
1.52                   0.9847531       -31.42075
1.524                   0.984487       -31.59376
1.528                  0.9842094        -31.7681
1.532                  0.9839198       -31.94374
1.536                  0.9836183        -32.1207
1.54                   0.9833044       -32.29896
1.544                  0.9829781       -32.47851
1.548                  0.9826392       -32.65937
1.552                  0.9822875        -32.8415
1.556                  0.9819226       -33.02492
1.56                   0.9815446       -33.20962
1.564                  0.9811534       -33.39558
1.568                  0.9807487       -33.58281
1.572                  0.9803306        -33.7713
1.576                  0.9798989       -33.96104
1.58                   0.9794536       -34.15204
1.584                  0.9789947       -34.34429
1.588                  0.9785223       -34.53777
1.592                  0.9780359       -34.73249
1.596                  0.9775361       -34.92845
1.6                    0.9770227       -35.12563
1.604                  0.9764959       -35.32406
1.608                  0.9759554       -35.52372
1.612                  0.9754015        -35.7246
1.616                  0.9748344       -35.92673
1.62                    0.974254       -36.13009
1.624                  0.9736607        -36.3347
1.628                  0.9730545       -36.54054
1.632                  0.9724356       -36.74764
1.636                  0.9718042         -36.956
1.64                   0.9711602       -37.16562
1.644                  0.9705042       -37.37652
1.648                   0.969836       -37.58872
1.652                  0.9691562       -37.80221
1.656                  0.9684647       -38.01703
1.66                   0.9677619       -38.23318
1.664                  0.9670479       -38.45068
1.668                  0.9663229       -38.66956
1.672                  0.9655873       -38.88983
1.676                  0.9648411       -39.11152
1.68                   0.9640847       -39.33466
1.684                  0.9633182       -39.55926
1.688                  0.9625418       -39.78537
1.692                  0.9617559         -40.013
1.696                  0.9609605       -40.24221
1.7                    0.9601557       -40.47302
1.704                  0.9593419       -40.70546
1.708                  0.9585192       -40.93958
1.712                  0.9576878       -41.17542
1.716                  0.9568476       -41.41303
1.72                   0.9559989       -41.65244
1.724                  0.9551417       -41.89372
1.728                  0.9542763       -42.13689
1.732                  0.9534024       -42.38203
1.736                  0.9525203       -42.62917
1.74                   0.9516299       -42.87838
1.744                  0.9507311       -43.12971
1.748                  0.9498241       -43.38322
1.752                  0.9489084       -43.63899
1.756                  0.9479843       -43.89705
1.76                   0.9470515       -44.15748
1.764                  0.9461097       -44.42035
1.768                  0.9451588       -44.68572
1.772                  0.9441985       -44.95366
1.776                  0.9432285       -45.22424
1.78                   0.9422487       -45.49754
1.784                  0.9412584       -45.77362
1.788                  0.9402573       -46.05257
1.792                  0.9392451       -46.33445
1.796                  0.9382212       -46.61935
1.8                    0.9371851       -46.90734
1.804                  0.9361361        -47.1985
1.808                  0.9350738       -47.49291
1.812                  0.9339972       -47.79065
1.816                   0.932906        -48.0918
1.82                   0.9317993       -48.39644
1.824                  0.9306762       -48.70465
1.828                   0.929536       -49.01652
1.832                  0.9283778       -49.33211
1.836                  0.9272007       -49.65154
1.84                   0.9260038       -49.97486
1.844                  0.9247858       -50.30216
1.848                   0.923546       -50.63354
1.852                  0.9222833       -50.96905
1.856                  0.9209964        -51.3088
1.86                   0.9196843       -51.65287
1.864                  0.9183457       -52.00131
1.868                  0.9169794       -52.35424
1.872                   0.915584       -52.71172
1.876                  0.9141584       -53.07384
1.88                   0.9127012       -53.44068
1.884                   0.911211        -53.8123
1.888                  0.9096866       -54.18879
1.892                  0.9081264       -54.57021
1.896                  0.9065288       -54.95667
1.9                    0.9048925       -55.34823
1.904                   0.903216       -55.74495
1.908                   0.901498       -56.14691
1.912                  0.8997366       -56.55419
1.916                  0.8979305       -56.96686
1.92                   0.8960779       -57.38499
1.924                  0.8941775       -57.80862
1.928                  0.8922276       -58.23786
1.932                  0.8902264       -58.67278
1.936                  0.8881726       -59.11341
1.94                   0.8860645       -59.55982
1.944                  0.8839005        -60.0121
1.948                  0.8816789       -60.47029
1.952                  0.8793983       -60.93446
1.956                  0.8770568       -61.40469
1.96                   0.8746532         -61.881
1.964                  0.8721856       -62.36349
1.968                  0.8696526        -62.8522
1.972                  0.8670526       -63.34719
1.976                  0.8643841       -63.84852
1.98                   0.8616455       -64.35625
1.984                  0.8588354       -64.87044
1.988                  0.8559525       -65.39112
1.992                   0.852995        -65.9184
1.996                  0.8499619       -66.45229
2                      0.8468515       -66.99287
2.004                  0.8436626       -67.54018
2.008                  0.8403938       -68.09431
2.012                  0.8370442       -68.65528
2.016                  0.8336121       -69.22317
2.02                   0.8300967       -69.79804
2.024                  0.8264966       -70.37994
2.028                  0.8228109       -70.96893
2.032                  0.8190385       -71.56508
2.036                  0.8151784       -72.16846
2.04                   0.8112298       -72.77912
2.044                  0.8071918       -73.39714
2.048                  0.8030633       -74.02259
2.052                  0.7988439       -74.65552
2.056                  0.7945329       -75.29602
2.06                   0.7901295       -75.94417
2.064                  0.7856333       -76.60005
2.068                  0.7810437       -77.26372
2.072                  0.7763603        -77.9353
2.076                  0.7715828       -78.61485
2.08                   0.7667108       -79.30247
2.084                  0.7617444       -79.99827
2.088                  0.7566831       -80.70235
2.092                  0.7515271        -81.4148
2.096                  0.7462765       -82.13574
2.1                    0.7409312        -82.8653
2.104                  0.7354914       -83.60359
2.108                  0.7299577       -84.35074
2.112                  0.7243302        -85.1069
2.116                  0.7186094       -85.87221
2.12                   0.7127959       -86.64681
2.124                  0.7068903       -87.43086
2.128                  0.7008934       -88.22455
2.132                   0.694806       -89.02806
2.136                  0.6886291       -89.84154
2.14                   0.6823636       -90.66522
2.144                  0.6760107       -91.49933
2.148                  0.6695717       -92.34406
2.152                  0.6630478       -93.19963
2.156                  0.6564405       -94.06633
2.16                   0.6497513       -94.94439
2.164                  0.6429821       -95.83412
2.168                  0.6361344       -96.73579
2.172                  0.6292103       -97.64972
2.176                  0.6222116       -98.57625
2.18                   0.6151407        -99.5157
2.184                  0.6079996       -100.4685
2.188                  0.6007909       -101.4349
2.192                  0.5935169       -102.4155
2.196                  0.5861804       -103.4106
2.2                    0.5787843       -104.4207
2.204                  0.5713311       -105.4463
2.208                  0.5638244       -106.4879
2.212                  0.5562673       -107.5461
2.216                   0.548663       -108.6215
2.22                   0.5410152       -109.7146
2.224                  0.5333275       -110.8261
2.228                   0.525604       -111.9567
2.232                  0.5178487       -113.1072
2.236                  0.5100658       -114.2782
2.24                     0.50226       -115.4707
2.244                  0.4944358       -116.6854
2.248                  0.4865982       -117.9233
2.252                  0.4787523       -119.1853
2.256                  0.4709035       -120.4724
2.26                   0.4630573       -121.7857
2.264                    0.45522       -123.1263
2.268                  0.4473974       -124.4954
2.272                   0.439596       -125.8942
2.276                  0.4318228        -127.324
2.28                   0.4240846       -128.7861
2.284                  0.4163891       -130.2819
2.288                   0.408744       -131.8129
2.292                  0.4011574       -133.3806
2.296                   0.393638       -134.9865
2.3                    0.3861946       -136.6323
2.304                  0.3788367       -138.3195
2.308                  0.3715741       -140.0498
2.312                   0.364417        -141.825
2.316                  0.3573761       -143.6466
2.32                   0.3504626       -145.5164
2.324                  0.3436881       -147.4359
2.328                  0.3370646       -149.4068
2.332                  0.3306048       -151.4304
2.336                  0.3243216       -153.5081
2.34                   0.3182282       -155.6411
2.344                  0.3123385       -157.8303
2.348                  0.3066663       -160.0764
2.352                   0.301226       -162.3799