! TOUCHSTONE file generated by CST MICROWAVE STUDIO
! Date and time: Thu May 12 15:28:17 2022
! Project name: AppElm_antenne_dipole_FR4.cst
! Parameters = {L=38.8; e=0.035; f=2.45e+09; h=1.6; i=0.8; l1=5; lambda=122.449; ls=30; wl=1.7; ws=80}
! Header version: 2018
! Port assignment regex: !\s*Touchstone port\s*([0-9]+)\s*=\s*(CST MWS port|CST DS port)\s*([0-9]+|Zmin|Zmax)\s*\(\"(.*)\"\)(\s*mode\s*([0-9]+))?.*
! Touchstone port assignment:
! Touchstone port 1 = CST MWS port 1 ("")
# GHz S MA R 50
0                        0.99769              -0
0.004                  0.9976919     -0.05449535
0.008                  0.9976975      -0.1090038
0.012                   0.997707      -0.1635385
0.016                  0.9977201      -0.2181124
0.02                   0.9977369      -0.2727383
0.024                  0.9977575       -0.327429
0.028                  0.9977814      -0.3821971
0.032                  0.9978089      -0.4370547
0.036                  0.9978397       -0.492014
0.04                   0.9978739      -0.5470864
0.044                  0.9979112      -0.6022835
0.048                  0.9979517      -0.6576162
0.052                   0.997995       -0.713095
0.056                   0.998041        -0.76873
0.06                   0.9980898      -0.8245307
0.064                  0.9981411      -0.8805065
0.068                  0.9981946      -0.9366657
0.072                  0.9982502      -0.9930163
0.076                  0.9983078       -1.049566
0.08                   0.9983672       -1.106321
0.084                  0.9984281       -1.163288
0.088                  0.9984905       -1.220473
0.092                  0.9985539        -1.27788
0.096                  0.9986184       -1.335513
0.1                    0.9986836       -1.393377
0.104                  0.9987493       -1.451473
0.108                  0.9988153       -1.509805
0.112                  0.9988814       -1.568373
0.116                  0.9989475       -1.627178
0.12                   0.9990132       -1.686221
0.124                  0.9990783         -1.7455
0.128                  0.9991427       -1.805014
0.132                  0.9992062       -1.864762
0.136                  0.9992683        -1.92474
0.14                   0.9993293       -1.984945
0.144                  0.9993887       -2.045373
0.148                  0.9994462       -2.106019
0.152                  0.9995017       -2.166878
0.156                  0.9995552       -2.227944
0.16                   0.9996062       -2.289211
0.164                  0.9996548       -2.350671
0.168                  0.9997006       -2.412316
0.172                  0.9997438       -2.474139
0.176                   0.999784       -2.536132
0.18                    0.999821       -2.598284
0.184                  0.9998548       -2.660587
0.188                  0.9998854       -2.723031
0.192                  0.9999125       -2.785604
0.196                  0.9999361       -2.848298
0.2                     0.999956       -2.911101
0.204                  0.9999724       -2.974002
0.208                  0.9999849        -3.03699
0.212                  0.9999938       -3.100053
0.216                  0.9999988       -3.163179
0.22                           1       -3.226358
0.224                  0.9999973       -3.289577
0.228                  0.9999908       -3.352825
0.232                  0.9999804        -3.41609
0.236                  0.9999664        -3.47936
0.24                   0.9999485       -3.542624
0.244                  0.9999268        -3.60587
0.248                  0.9999017       -3.669087
0.252                  0.9998729       -3.732265
0.256                  0.9998408       -3.795392
0.26                   0.9998052       -3.858459
0.264                  0.9997662       -3.921454
0.268                  0.9997242       -3.984368
0.272                  0.9996792       -4.047193
0.276                  0.9996313       -4.109919
0.28                   0.9995807       -4.172537
0.284                  0.9995276        -4.23504
0.288                   0.999472       -4.297421
0.292                  0.9994142       -4.359672
0.296                  0.9993545       -4.421788
0.3                    0.9992928       -4.483762
0.304                  0.9992295       -4.545589
0.308                  0.9991648       -4.607267
0.312                  0.9990988        -4.66879
0.316                  0.9990318       -4.730155
0.32                   0.9989641       -4.791361
0.324                  0.9988956       -4.852406
0.328                  0.9988268       -4.913289
0.332                   0.998758       -4.974008
0.336                  0.9986892       -5.034567
0.34                   0.9986205       -5.094966
0.344                  0.9985525       -5.155205
0.348                  0.9984852       -5.215289
0.352                  0.9984188        -5.27522
0.356                  0.9983537       -5.335003
0.36                     0.99829       -5.394643
0.364                  0.9982278       -5.454146
0.368                  0.9981673       -5.513517
0.372                  0.9981089       -5.572765
0.376                  0.9980527       -5.631895
0.38                   0.9979989       -5.690917
0.384                  0.9979476        -5.74984
0.388                   0.997899       -5.808673
0.392                  0.9978534       -5.867424
0.396                  0.9978106       -5.926108
0.4                    0.9977711       -5.984733
0.404                  0.9977349        -6.04331
0.408                  0.9977022       -6.101853
0.412                  0.9976729       -6.160374
0.416                  0.9976472       -6.218884
0.42                   0.9976253       -6.277397
0.424                  0.9976073       -6.335926
0.428                   0.997593       -6.394486
0.432                  0.9975826        -6.45309
0.436                  0.9975762       -6.511751
0.44                   0.9975737       -6.570485
0.444                  0.9975753       -6.629303
0.448                  0.9975808       -6.688223
0.452                  0.9975903       -6.747256
0.456                  0.9976037       -6.806418
0.46                    0.997621       -6.865723
0.464                  0.9976422       -6.925185
0.468                  0.9976671       -6.984816
0.472                  0.9976957       -7.044631
0.476                  0.9977278       -7.104644
0.48                   0.9977636       -7.164867
0.484                  0.9978027       -7.225311
0.488                   0.997845       -7.285991
0.492                  0.9978904       -7.346917
0.496                  0.9979388       -7.408101
0.5                      0.99799       -7.469556
0.504                  0.9980438       -7.531289
0.508                  0.9981001       -7.593311
0.512                  0.9981586       -7.655632
0.516                  0.9982192        -7.71826
0.52                   0.9982817       -7.781203
0.524                  0.9983458       -7.844468
0.528                  0.9984114       -7.908063
0.532                  0.9984783       -7.971992
0.536                  0.9985461       -8.036261
0.54                   0.9986146       -8.100877
0.544                  0.9986837       -8.165841
0.548                   0.998753       -8.231154
0.552                  0.9988226       -8.296823
0.556                  0.9988919        -8.36285
0.56                   0.9989607       -8.429228
0.564                   0.999029       -8.495966
0.568                  0.9990962       -8.563059
0.572                  0.9991623       -8.630503
0.576                  0.9992272       -8.698302
0.58                   0.9992904       -8.766449
0.584                  0.9993517       -8.834938
0.588                  0.9994111        -8.90377
0.592                  0.9994682       -8.972936
0.596                  0.9995228       -9.042432
0.6                    0.9995747        -9.11225
0.604                  0.9996238       -9.182382
0.608                  0.9996698       -9.252823
0.612                  0.9997128       -9.323563
0.616                  0.9997522       -9.394594
0.62                    0.999788       -9.465905
0.624                  0.9998202       -9.537487
0.628                  0.9998485       -9.609329
0.632                  0.9998728       -9.681423
0.636                  0.9998933       -9.753754
0.64                   0.9999094       -9.826311
0.644                  0.9999213       -9.899085
0.648                  0.9999288       -9.972061
0.652                  0.9999321       -10.04523
0.656                  0.9999307       -10.11857
0.66                    0.999925       -10.19208
0.664                   0.999915       -10.26575
0.668                  0.9999001       -10.33955
0.672                   0.999881       -10.41348
0.676                  0.9998574       -10.48753
0.68                   0.9998292       -10.56167
0.684                  0.9997969       -10.63591
0.688                    0.99976       -10.71022
0.692                   0.999719        -10.7846
0.696                   0.999674       -10.85903
0.7                    0.9996247        -10.9335
0.704                  0.9995715         -11.008
0.708                  0.9995148       -11.08252
0.712                  0.9994542       -11.15706
0.716                  0.9993901       -11.23158
0.72                   0.9993228        -11.3061
0.724                  0.9992522        -11.3806
0.728                  0.9991787       -11.45507
0.732                  0.9991024       -11.52951
0.736                  0.9990235        -11.6039
0.74                   0.9989424       -11.67825
0.744                   0.998859       -11.75254
0.748                  0.9987739       -11.82677
0.752                   0.998687       -11.90094
0.756                  0.9985985       -11.97505
0.76                   0.9985091       -12.04908
0.764                  0.9984186       -12.12304
0.768                  0.9983275       -12.19694
0.772                  0.9982359       -12.27076
0.776                  0.9981442       -12.34451
0.78                   0.9980526       -12.41819
0.784                  0.9979614       -12.49181
0.788                  0.9978708       -12.56536
0.792                  0.9977808       -12.63886
0.796                  0.9976922        -12.7123
0.8                    0.9976048       -12.78569
0.804                  0.9975192       -12.85905
0.808                  0.9974353       -12.93237
0.812                  0.9973535       -13.00567
0.816                  0.9972741       -13.07895
0.82                   0.9971973       -13.15223
0.824                  0.9971231       -13.22552
0.828                  0.9970519       -13.29883
0.832                  0.9969839       -13.37216
0.836                  0.9969192       -13.44554
0.84                    0.996858       -13.51898
0.844                  0.9968005       -13.59249
0.848                  0.9967468       -13.66608
0.852                  0.9966971       -13.73978
0.856                  0.9966515        -13.8136
0.86                     0.99661       -13.88755
0.864                  0.9965729       -13.96165
0.868                  0.9965401       -14.03592
0.872                  0.9965117       -14.11038
0.876                   0.996488       -14.18504
0.88                   0.9964685       -14.25993
0.884                  0.9964537       -14.33505
0.888                  0.9964434       -14.41044
0.892                  0.9964377       -14.48609
0.896                  0.9964365       -14.56205
0.9                    0.9964397       -14.63832
0.904                  0.9964474       -14.71492
0.908                  0.9964594       -14.79186
0.912                  0.9964756       -14.86918
0.916                  0.9964958       -14.94688
0.92                   0.9965202       -15.02499
0.924                  0.9965483       -15.10351
0.928                  0.9965803       -15.18247
0.932                  0.9966157       -15.26188
0.936                  0.9966544       -15.34176
0.94                   0.9966964       -15.42213
0.944                  0.9967414       -15.50298
0.948                  0.9967892       -15.58436
0.952                  0.9968393       -15.66626
0.956                  0.9968918       -15.74869
0.96                   0.9969463       -15.83167
0.964                  0.9970026       -15.91522
0.968                  0.9970603       -15.99933
0.972                  0.9971194       -16.08402
0.976                  0.9971793        -16.1693
0.98                   0.9972398       -16.25518
0.984                  0.9973008       -16.34167
0.988                  0.9973617       -16.42876
0.992                  0.9974224       -16.51646
0.996                  0.9974826       -16.60478
1                      0.9975419       -16.69373
1.004                  0.9975999        -16.7833
1.008                  0.9976565       -16.87349
1.012                  0.9977114       -16.96431
1.016                  0.9977642       -17.05576
1.02                   0.9978145       -17.14783
1.024                  0.9978621       -17.24051
1.028                  0.9979068       -17.33381
1.032                  0.9979481       -17.42774
1.036                  0.9979859       -17.52224
1.04                     0.99802       -17.61737
1.044                  0.9980498        -17.7131
1.048                  0.9980753       -17.80941
1.052                  0.9980963       -17.90631
1.056                  0.9981125       -18.00379
1.06                   0.9981235       -18.10182
1.064                  0.9981293       -18.20037
1.068                  0.9981297       -18.29946
1.072                  0.9981246        -18.3991
1.076                  0.9981134       -18.49926
1.08                   0.9980965       -18.59996
1.084                  0.9980735       -18.70107
1.088                  0.9980441       -18.80271
1.092                  0.9980085       -18.90478
1.096                  0.9979665       -19.00731
1.1                    0.9979181       -19.11028
1.104                  0.9978632       -19.21369
1.108                  0.9978016       -19.31751
1.112                  0.9977334       -19.42169
1.116                  0.9976588       -19.52624
1.12                   0.9975776       -19.63121
1.124                  0.9974899       -19.73645
1.128                  0.9973957       -19.84208
1.132                  0.9972951       -19.94801
1.136                  0.9971882       -20.05424
1.14                   0.9970752       -20.16077
1.144                  0.9969561       -20.26759
1.148                  0.9968311       -20.37466
1.152                  0.9967003         -20.482
1.156                  0.9965639       -20.58958
1.16                   0.9964222       -20.69739
1.164                  0.9962752       -20.80543
1.168                  0.9961234       -20.91368
1.172                  0.9959668       -21.02214
1.176                  0.9958056        -21.1308
1.18                   0.9956403       -21.23965
1.184                   0.995471       -21.34869
1.188                  0.9952981       -21.45791
1.192                  0.9951218        -21.5673
1.196                  0.9949424       -21.67687
1.2                    0.9947602       -21.78662
1.204                  0.9945754       -21.89654
1.208                  0.9943886       -22.00663
1.212                     0.9942        -22.1169
1.216                  0.9940099       -22.22734
1.22                   0.9938187       -22.33797
1.224                  0.9936265       -22.44879
1.228                  0.9934339        -22.5598
1.232                  0.9932413       -22.67102
1.236                  0.9930486       -22.78244
1.24                   0.9928565       -22.89409
1.244                  0.9926652       -23.00597
1.248                  0.9924751        -23.1181
1.252                  0.9922863       -23.23049
1.256                  0.9920994       -23.34316
1.26                   0.9919144       -23.45611
1.264                  0.9917318       -23.56938
1.268                  0.9915518       -23.68298
1.272                  0.9913746       -23.79692
1.276                  0.9912005       -23.91124
1.28                   0.9910299       -24.02594
1.284                  0.9908626       -24.14106
1.288                  0.9906992       -24.25662
1.292                  0.9905397       -24.37264
1.296                  0.9903844       -24.48915
1.3                    0.9902333       -24.60618
1.304                  0.9900864       -24.72375
1.308                  0.9899441       -24.84189
1.312                  0.9898065       -24.96063
1.316                  0.9896735          -25.08
1.32                    0.989545       -25.20003
1.324                  0.9894213       -25.32075
1.328                  0.9893025       -25.44218
1.332                  0.9891882       -25.56437
1.336                  0.9890785       -25.68733
1.34                   0.9889734       -25.81111
1.344                  0.9888729       -25.93573
1.348                  0.9887767       -26.06123
1.352                  0.9886846       -26.18763
1.356                  0.9885967       -26.31497
1.36                   0.9885126       -26.44328
1.364                  0.9884322       -26.57259
1.368                  0.9883551       -26.70293
1.372                  0.9882814       -26.83432
1.376                  0.9882105        -26.9668
1.38                    0.988142       -27.10041
1.384                  0.9880761       -27.23515
1.388                  0.9880119       -27.37107
1.392                  0.9879494       -27.50818
1.396                  0.9878881       -27.64653
1.4                    0.9878275       -27.78612
1.404                  0.9877675       -27.92699
1.408                  0.9877073       -28.06916
1.412                  0.9876468       -28.21264
1.416                  0.9875851       -28.35747
1.42                   0.9875223       -28.50366
1.424                  0.9874575       -28.65123
1.428                  0.9873904        -28.8002
1.432                  0.9873204       -28.95058
1.436                  0.9872472       -29.10239
1.44                     0.98717       -29.25565
1.444                  0.9870885       -29.41037
1.448                   0.987002       -29.56655
1.452                  0.9869101       -29.72421
1.456                  0.9868123       -29.88337
1.46                    0.986708       -30.04401
1.464                  0.9865967       -30.20616
1.468                  0.9864782       -30.36982
1.472                  0.9863512         -30.535
1.476                   0.986216       -30.70168
1.48                   0.9860718       -30.86988
1.484                  0.9859179       -31.03961
1.488                   0.985754       -31.21085
1.492                  0.9855797        -31.3836
1.496                  0.9853945       -31.55787
1.5                    0.9851978       -31.73365
1.504                  0.9849895       -31.91093
1.508                  0.9847688       -32.08971
1.512                  0.9845355       -32.26998
1.516                  0.9842893       -32.45175
1.52                   0.9840297       -32.63498
1.524                  0.9837563       -32.81969
1.528                   0.983469       -33.00586
1.532                  0.9831673       -33.19347
1.536                   0.982851       -33.38253
1.54                   0.9825199       -33.57302
1.544                  0.9821736       -33.76493
1.548                  0.9818121       -33.95823
1.552                   0.981435       -34.15295
1.556                  0.9810424       -34.34905
1.56                   0.9806338       -34.54652
1.564                  0.9802094       -34.74536
1.568                   0.979769       -34.94554
1.572                  0.9793128       -35.14707
1.576                  0.9788402       -35.34994
1.58                   0.9783517       -35.55412
1.584                   0.977847       -35.75963
1.588                  0.9773263       -35.96644
1.592                  0.9767897       -36.17455
1.596                  0.9762372       -36.38396
1.6                    0.9756689       -36.59465
1.604                   0.975085       -36.80663
1.608                  0.9744856       -37.01988
1.612                  0.9738708       -37.23442
1.616                   0.973241       -37.45024
1.62                   0.9725964       -37.66733
1.624                  0.9719369       -37.88571
1.628                   0.971263       -38.10537
1.632                  0.9705751       -38.32633
1.636                  0.9698732       -38.54859
1.64                   0.9691576       -38.77215
1.644                  0.9684288       -38.99704
1.648                  0.9676868       -39.22327
1.652                  0.9669324       -39.45084
1.656                  0.9661656       -39.67978
1.66                   0.9653865       -39.91011
1.664                   0.964596       -40.14185
1.668                  0.9637939       -40.37503
1.672                  0.9629809       -40.60966
1.676                  0.9621572       -40.84578
1.68                   0.9613229       -41.08343
1.684                  0.9604786       -41.32264
1.688                  0.9596246       -41.56343
1.692                  0.9587609       -41.80587
1.696                  0.9578881       -42.04997
1.7                    0.9570063       -42.29579
1.704                  0.9561159       -42.54337
1.708                  0.9552167       -42.79278
1.712                  0.9543095       -43.04404
1.716                  0.9533941       -43.29722
1.72                   0.9524708       -43.55238
1.724                  0.9515397       -43.80958
1.728                  0.9506009       -44.06886
1.732                  0.9496544        -44.3303
1.736                  0.9487002       -44.59397
1.74                   0.9477385       -44.85994
1.744                  0.9467692       -45.12827
1.748                  0.9457921       -45.39903
1.752                  0.9448071       -45.67231
1.756                  0.9438143       -45.94817
1.76                   0.9428132        -46.2267
1.764                  0.9418037       -46.50797
1.768                  0.9407856       -46.79206
1.772                  0.9397582       -47.07908
1.776                  0.9387217       -47.36908
1.78                   0.9376752       -47.66216
1.784                  0.9366185       -47.95841
1.788                  0.9355507       -48.25793
1.792                  0.9344716       -48.56079
1.796                  0.9333806       -48.86709
1.8                    0.9322768       -49.17691
1.804                  0.9311595       -49.49036
1.808                   0.930028       -49.80752
1.812                  0.9288814        -50.1285
1.816                  0.9277188       -50.45338
1.82                   0.9265395       -50.78225
1.824                  0.9253422       -51.11522
1.828                   0.924126       -51.45237
1.832                  0.9228899       -51.79379
1.836                  0.9216328        -52.1396
1.84                   0.9203532       -52.48987
1.844                  0.9190503        -52.8447
1.848                  0.9177225       -53.20419
1.852                  0.9163687       -53.56843
1.856                  0.9149875       -53.93749
1.86                   0.9135773        -54.3115
1.864                   0.912137       -54.69052
1.868                  0.9106649       -55.07467
1.872                  0.9091597       -55.46399
1.876                  0.9076197       -55.85861
1.88                   0.9060432        -56.2586
1.884                   0.904429       -56.66404
1.888                  0.9027753       -57.07501
1.892                  0.9010803       -57.49162
1.896                  0.8993424       -57.91394
1.9                    0.8975601       -58.34203
1.904                  0.8957314         -58.776
1.908                  0.8938549       -59.21591
1.912                  0.8919286       -59.66183
1.916                  0.8899509       -60.11385
1.92                   0.8879201       -60.57205
1.924                  0.8858342       -61.03649
1.928                  0.8836918       -61.50723
1.932                   0.881491       -61.98436
1.936                    0.87923       -62.46795
1.94                   0.8769071       -62.95806
1.944                  0.8745205       -63.45476
1.948                  0.8720688       -63.95811
1.952                  0.8695499       -64.46817
1.956                  0.8669624       -64.98505
1.96                   0.8643046       -65.50876
1.964                  0.8615748       -66.03939
1.968                  0.8587714         -66.577
1.972                   0.855893       -67.12164
1.976                  0.8529378        -67.6734
1.98                   0.8499046       -68.23232
1.984                  0.8467916       -68.79848
1.988                  0.8435978       -69.37192
1.992                  0.8403214       -69.95273
1.996                  0.8369614       -70.54094
2                      0.8335164       -71.13664
2.004                  0.8299851       -71.73989
2.008                  0.8263665       -72.35075
2.012                  0.8226593        -72.9693
2.016                  0.8188626       -73.59558
2.02                   0.8149754       -74.22969
2.024                  0.8109966        -74.8717
2.028                  0.8069255       -75.52167
2.032                  0.8027614       -76.17968
2.036                  0.7985033       -76.84581
2.04                   0.7941507       -77.52014
2.044                  0.7897031       -78.20276
2.048                  0.7851601       -78.89376
2.052                  0.7805209       -79.59321
2.056                  0.7757855       -80.30123
2.06                   0.7709535       -81.01791
2.064                  0.7660247       -81.74336
2.068                  0.7609992       -82.47769
2.072                  0.7558768       -83.22097
2.076                  0.7506578       -83.97339
2.08                   0.7453423       -84.73501
2.084                  0.7399306       -85.50603
2.088                  0.7344229       -86.28651
2.092                    0.72882       -87.07667
2.096                  0.7231224       -87.87662
2.1                    0.7173306       -88.68652
2.104                  0.7114456       -89.50658
2.108                  0.7054682       -90.33694
2.112                  0.6993994       -91.17779
2.116                  0.6932403       -92.02935
2.12                   0.6869921       -92.89184
2.124                  0.6806561       -93.76545
2.128                  0.6742341       -94.65044
2.132                  0.6677271       -95.54705
2.136                  0.6611373       -96.45553
2.14                   0.6544662        -97.3762
2.144                  0.6477157        -98.3093
2.148                  0.6408881       -99.25517
2.152                  0.6339855       -100.2141
2.156                  0.6270101       -101.1865
2.16                   0.6199644       -102.1727
2.164                  0.6128511       -103.1731
2.168                  0.6056729       -104.1881
2.172                  0.5984326       -105.2181
2.176                  0.5911334       -106.2636
2.18                   0.5837782        -107.325
2.184                  0.5763706       -108.4029
2.188                   0.568914       -109.4978
2.192                  0.5614122       -110.6102
2.196                  0.5538688       -111.7407
2.2                     0.546288       -112.8901
2.204                   0.538674       -114.0588
2.208                  0.5310311       -115.2477
2.212                  0.5233641       -116.4574
2.216                  0.5156775       -117.6888
2.22                   0.5079767       -118.9426
2.224                  0.5002667       -120.2196
2.228                   0.492553       -121.5207
2.232                  0.4848414        -122.847
2.236                  0.4771379       -124.1993
2.24                   0.4694486       -125.5786
2.244                    0.46178       -126.9861
2.248                   0.454139       -128.4228
2.252                  0.4465327       -129.8898
2.256                  0.4389684       -131.3884
2.26                   0.4314538       -132.9196
2.264                   0.423997       -134.4849
2.268                  0.4166063       -136.0855
2.272                  0.4092905       -137.7226
2.276                  0.4020587       -139.3976
2.28                   0.3949203       -141.1118
2.284                  0.3878851       -142.8665
2.288                  0.3809633       -144.6631
2.292                  0.3741654       -146.5027
2.296                  0.3675025       -148.3867
2.3                    0.3609856       -150.3161
2.304                  0.3546266       -152.2921
2.308                  0.3484372       -154.3155
2.312                  0.3424297       -156.3872
2.316                  0.3366165       -158.5077
2.32                   0.3310102       -160.6775
2.324                  0.3256236       -162.8967
2.328                  0.3204694       -165.1652
2.332                  0.3155604       -167.4824
2.336                  0.3109092       -169.8475
2.34                   0.3065281       -172.2594
2.344                  0.3024292       -174.7163
2.348                  0.2986237       -177.2161
2.352                  0.2951225       -179.7563