! TOUCHSTONE file generated by CST MICROWAVE STUDIO
! Date and time: Tue Jun 14 13:48:59 2022
! Project name: AppElm_antenne_patch_FR4.cst
! Parameters = {L=45; W=58.5; e=0.035; h=1.6; lambda=0.190476; ls=120; w0=2.54; w1=0.847; ws=120; y0=18; y1=29.75}
! Header version: 2018
! Port assignment regex: !\s*Touchstone port\s*([0-9]+)\s*=\s*(CST MWS port|CST DS port)\s*([0-9]+|Zmin|Zmax)\s*\(\"(.*)\"\)(\s*mode\s*([0-9]+))?.*
! Touchstone port assignment:
! Touchstone port 1 = CST MWS port 1 ("")
# GHz S MA R 50
0                      0.9900353              -0
0.004                  0.9906863       -10.10895
0.008                  0.9925423       -20.12312
0.012                  0.9953283       -29.95258
0.016                  0.9986366       -39.51625
0.02                    1.001991       -48.74466
0.024                    1.00492       -57.58111
0.028                   1.007028        -65.9819
0.032                   1.008046       -73.91566
0.036                   1.007872       -81.36279
0.04                    1.006577       -88.31485
0.044                   1.004393       -94.77436
0.048                   1.001677       -100.7549
0.052                  0.9988552       -106.2809
0.056                  0.9963561       -111.3867
0.06                   0.9945463       -116.1155
0.064                  0.9936733       -120.5158
0.068                  0.9938279       -124.6381
0.072                  0.9949353       -128.5306
0.076                  0.9967719       -132.2354
0.08                   0.9990084       -135.7853
0.084                   1.001268       -139.2022
0.088                   1.003186       -142.4978
0.092                   1.004472       -145.6745
0.096                   1.004947       -148.7282
0.1                     1.004572       -151.6514
0.104                   1.003445       -154.4364
0.108                   1.001783       -157.0782
0.112                  0.9998828       -159.5771
0.116                  0.9980738       -161.9399
0.12                   0.9966583       -164.1803
0.124                  0.9958637       -166.3176
0.128                  0.9958061       -168.3745
0.132                  0.9964718       -170.3742
0.136                  0.9977248       -172.3375
0.14                   0.9993325       -174.2794
0.144                    1.00101       -176.2085
0.148                   1.002469       -178.1259
0.152                   1.003468        179.9741
0.156                   1.003849        178.1018
0.16                    1.003563          176.27
0.164                   1.002676        174.4914
0.168                   1.001353        172.7762
0.172                  0.9998306        171.1295
0.176                  0.9983764        169.5508
0.18                   0.9972408        168.0333
0.184                  0.9966153         166.565
0.188                  0.9965992        165.1305
0.192                  0.9971842        163.7132
0.196                  0.9982568        162.2986
0.2                    0.9996212        160.8762
0.204                   1.001035        159.4411
0.208                    1.00225        157.9944
0.212                   1.003061        156.5429
0.216                   1.003331        155.0973
0.22                    1.003021        153.6703
0.224                   1.002191        152.2745
0.228                   1.000992        150.9199
0.232                  0.9996344        149.6122
0.236                  0.9983565        148.3515
0.24                     0.99738        147.1326
0.244                  0.9968727        145.9453
0.248                  0.9969189        144.7765
0.252                  0.9975041         143.612
0.256                  0.9985205        142.4395
0.26                   0.9997852        141.2504
0.264                   1.001075        140.0411
0.268                   1.002163        138.8137
0.272                   1.002863        137.5751
0.276                   1.003055         136.336
0.28                     1.00271        135.1088
0.284                    1.00189        133.9055
0.288                   1.000739        132.7354
0.292                  0.9994614        131.6041
0.296                  0.9982791        130.5115
0.3                    0.9973993        129.4526
0.304                  0.9969747        128.4177
0.308                  0.9970781        127.3946
0.312                  0.9976884        126.3701
0.316                  0.9986959        125.3329
0.32                   0.9999224        124.2754
0.324                   1.001151        123.1949
0.328                   1.002169        122.0938
0.332                   1.002799        120.9794
0.336                   1.002932        119.8623
0.34                    1.002548        118.7548
0.344                   1.001714        117.6684
0.348                   1.000575        116.6122
0.352                  0.9993324         115.591
0.356                  0.9982023        114.6048
0.36                   0.9973835        113.6482
0.364                  0.9970194        112.7117
0.368                  0.9971736        111.7831
0.372                  0.9978186        110.8499
0.376                    0.99884        109.9014
0.38                    1.000058        108.9303
0.384                    1.00126        107.9345
0.388                   1.002235         106.917
0.392                   1.002814        105.8854
0.396                   1.002896        104.8504
0.4                     1.002469        103.8241
0.404                   1.001605        102.8181
0.408                   1.000455         101.841
0.412                  0.9992194        100.8974
0.416                  0.9981153        99.98673
0.42                   0.9973362        99.10343
0.424                  0.9970197        98.23776
0.428                  0.9972219         97.3775
0.432                  0.9979076        96.51023
0.436                  0.9989564        95.62539
0.44                    1.000184        94.71637
0.444                   1.001376        93.78138
0.448                   1.002324        92.82385
0.452                   1.002862        91.85176
0.456                   1.002895        90.87614
0.46                    1.002418        89.90926
0.464                   1.001511        88.96253
0.468                   1.000333        88.04448
0.472                  0.9990864        87.15934
0.476                  0.9979912        86.30614
0.48                   0.9972393         85.4789
0.484                  0.9969639        84.66746
0.488                  0.9972145        83.85941
0.492                  0.9979479        83.04223
0.496                  0.9990355        82.20554
0.5                     1.000287        81.34299
0.504                   1.001482        80.45322
0.508                   1.002413         79.5402
0.512                   1.002914        78.61233
0.516                   1.002899        77.68106
0.52                    1.002366         76.7589
0.524                   1.001407        75.85732
0.528                   1.000187        74.98474
0.532                  0.9989179        74.14505
0.536                  0.9978213        73.33687
0.54                   0.9970909        72.55364
0.544                  0.9968561        71.78477
0.548                  0.9971601        71.01742
0.552                  0.9979506        70.23886
0.556                  0.9990895         69.4388
0.56                    1.000377        68.61109
0.564                   1.001588        67.75483
0.568                    1.00251         66.8745
0.572                    1.00298         65.9791
0.576                   1.002915        65.08059
0.58                    1.002322        64.19179
0.584                   1.001303        63.32437
0.588                   1.000032        62.48665
0.592                  0.9987302        61.68222
0.596                   0.997626         60.9092
0.6                    0.9969144        60.16042
0.604                  0.9967225        59.42466
0.608                  0.9970866         58.6886
0.612                  0.9979442        57.93923
0.616                  0.9991466        57.16615
0.62                    1.000483        56.36347
0.624                    1.00172        55.53074
0.628                    1.00264        54.67306
0.632                    1.00308        53.80007
0.636                   1.002962        52.92433
0.64                    1.002302        52.05917
0.644                   1.001213        51.21643
0.648                  0.9998796        50.40444
0.652                  0.9985358        49.62647
0.656                  0.9974164        48.88009
0.66                     0.99672        48.15745
0.664                  0.9965718         47.4466
0.668                   0.997001        46.73358
0.672                  0.9979347        46.00499
0.676                  0.9992107        45.25033
0.68                    1.000606        44.46387
0.684                   1.001876         43.6457
0.688                   1.002799        42.80156
0.692                   1.003209        41.94186
0.696                   1.003033        41.07987
0.7                     1.002296        40.22948
0.704                   1.001123        39.40286
0.708                  0.9997153        38.60834
0.712                  0.9983166         37.8489
0.716                  0.9971726        37.12151
0.72                   0.9964865        36.41754
0.724                  0.9963821        35.72418
0.728                  0.9968814        35.02676
0.732                  0.9978998        34.31132
0.736                  0.9992602         33.5672
0.74                    1.000725        32.78886
0.744                   1.002038        31.97689
0.748                   1.002967        31.13777
0.752                   1.003347        30.28277
0.756                   1.003108        29.42599
0.76                    1.002285          28.582
0.764                   1.001016        27.76341
0.768                  0.9995187         26.9786
0.772                   0.998052        26.23027
0.776                  0.9968736        25.51472
0.78                   0.9961927        24.82247
0.784                  0.9961329        24.13974
0.788                   0.996709        23.45095
0.792                  0.9978233        22.74152
0.796                  0.9992822         22.0005
0.8                     1.000831        21.22252
0.804                   1.002198        20.40866
0.808                   1.003143        19.56623
0.812                   1.003496        18.70747
0.816                    1.00319        17.84747
0.82                    1.002272        17.00162
0.824                   1.000894        16.18304
0.828                  0.9992922        15.40029
0.832                  0.9977433        14.65578
0.836                  0.9965192        13.94517
0.84                   0.9958381        13.25795
0.844                  0.9958242        12.57925
0.848                  0.9964851        11.89243
0.852                   0.997709         11.1821
0.856                  0.9992842        10.43693
0.86                    1.000936        9.651615
0.864                   1.002375        8.827788
0.868                   1.003347        7.973649
0.872                   1.003678        7.102533
0.876                   1.003304        6.230661
0.88                    1.002281        5.374431
0.884                   1.000778        4.547662
0.888                  0.9990531        3.759188
0.892                   0.997403        3.011194
0.896                  0.9961179        2.298631
0.9                    0.9954271        1.609917
0.904                  0.9954579       0.9288707
0.908                  0.9962113       0.2375844
0.912                  0.9975606      -0.4803281
0.916                  0.9992728       -1.236765
0.92                     1.00105       -2.037037
0.924                   1.002582       -2.878995
0.928                   1.003598       -3.753468
0.932                   1.003915       -4.645868
0.936                    1.00347       -5.538637
0.94                     1.00233       -6.414144
0.944                   1.000683       -7.257651
0.948                  0.9988086       -8.059875
0.952                  0.9970306       -8.818755
0.956                  0.9956607       -9.540053
0.96                   0.9949441       -10.23656
0.964                   0.995014       -10.92598
0.968                   0.995866       -11.62776
0.972                  0.9973575       -12.35957
0.976                  0.9992322       -13.13411
0.98                    1.001165       -13.95685
0.984                   1.002817       -14.82517
0.988                   1.003898       -15.72883
0.992                   1.004213       -16.65183
0.996                   1.003696         -17.575
1                       1.002423       -18.47918
1.004                   1.000604       -19.34839
1.008                  0.9985459       -20.17268
1.012                   0.996602       -20.94987
1.016                   0.995113        -21.6865
1.02                   0.9943459       -22.39667
1.024                  0.9944439       -23.09988
1.028                  0.9953995       -23.81754
1.032                  0.9970539       -24.56892
1.036                  0.9991236       -25.36789
1.04                     1.00125       -26.22038
1.044                   1.003063       -27.12327
1.048                   1.004241       -28.06523
1.052                   1.004572       -29.02865
1.056                   1.003984       -29.99242
1.06                    1.002562       -30.93531
1.064                   1.000536       -31.83979
1.068                   0.998247       -32.69474
1.072                  0.9960853        -33.4978
1.076                  0.9944292       -34.25604
1.08                   0.9935752       -34.98515
1.084                  0.9936838       -35.70669
1.088                  0.9947483       -36.44451
1.092                   0.996593       -37.22025
1.096                  0.9989034       -38.04928
1.1                     1.001281       -38.93832
1.104                   1.003311       -39.88406
1.108                   1.004636         -40.874
1.112                   1.005014       -41.88841
1.116                   1.004362        -42.9039
1.12                    1.002771       -43.89668
1.124                   1.000494       -44.84695
1.128                  0.9979104       -45.74195
1.132                  0.9954585       -46.57856
1.136                  0.9935659        -47.3644
1.14                   0.9925715       -48.11679
1.144                  0.9926633       -48.86001
1.148                  0.9938408       -49.62101
1.152                  0.9959128       -50.42445
1.156                  0.9985284       -51.28819
1.16                    1.001238       -52.22019
1.164                   1.003571       -53.21718
1.168                   1.005116       -54.26537
1.172                   1.005591       -55.34282
1.176                    1.00489       -56.42292
1.18                    1.003105       -57.47865
1.184                   1.000515        -58.4869
1.188                  0.9975453       -59.43245
1.192                  0.9946955       -60.31086
1.196                  0.9924607       -61.12995
1.2                    0.9912409       -61.90892
1.204                  0.9912677       -62.67536
1.208                  0.9925576       -63.46039
1.212                  0.9949052       -64.29296
1.216                  0.9979162       -65.19455
1.22                    1.001076       -66.17528
1.224                   1.003838       -67.23233
1.228                   1.005714       -68.35067
1.232                   1.006362       -69.50546
1.236                   1.005637        -70.6662
1.24                    1.003624       -71.80121
1.244                   1.000627       -72.88283
1.248                  0.9971282       -73.89195
1.252                  0.9937106       -74.82175
1.256                  0.9909628       -75.67972
1.26                   0.9893756       -76.48709
1.264                  0.9892504       -77.27573
1.268                  0.9906379       -78.08257
1.272                  0.9933241       -78.94284
1.276                  0.9968623       -79.88343
1.28                    1.000651       -80.91816
1.284                   1.004036       -82.04553
1.288                    1.00642       -83.24922
1.292                   1.007363       -84.50092
1.296                   1.006657       -85.76473
1.3                     1.004361       -87.00249
1.304                   1.000806       -88.17977
1.308                  0.9965449       -89.27137
1.312                   0.992274       -90.26619
1.316                    0.98872       -91.17024
1.32                   0.9865135       -92.00692
1.324                   0.986071       -92.81381
1.328                  0.9875116       -93.63633
1.332                  0.9906237       -94.51927
1.336                   0.994897       -95.49836
1.34                    0.999608       -96.59382
1.344                   1.003943       -97.80702
1.348                   1.007134       -99.12073
1.352                   1.008587       -100.5021
1.356                   1.007977       -101.9076
1.36                    1.005308       -103.2897
1.364                   1.000926       -104.6033
1.368                  0.9954769        -105.813
1.372                  0.9898213       -106.8998
1.376                  0.9848995       -107.8659
1.38                   0.9815729       -108.7364
1.384                  0.9804635        -109.557
1.388                  0.9818259       -110.3863
1.392                  0.9854835       -111.2853
1.396                  0.9908466       -112.3053
1.4                     0.997009       -113.4786
1.404                   1.002902       -114.8132
1.408                    1.00747       -116.2919
1.412                   1.009843       -117.8762
1.416                   1.009473       -119.5114
1.42                    1.006231       -121.1348
1.424                   1.000443       -122.6835
1.428                  0.9928742       -124.1037
1.432                  0.9846329       -125.3603
1.436                  0.9770226       -126.4451
1.44                   0.9713312       -127.3825
1.444                  0.9685937         -128.23
1.448                  0.9693775         -129.07
1.452                  0.9736398        -129.995
1.456                  0.9807045       -131.0895
1.46                   0.9893628       -132.4137
1.464                  0.9980754        -133.993
1.468                   1.005221       -135.8163
1.472                   1.009346       -137.8392
1.476                   1.009385       -139.9911
1.48                    1.004821       -142.1846
1.484                  0.9957895       -144.3244
1.488                  0.9831195       -146.3189
1.492                  0.9682832       -148.0933
1.496                  0.9532548       -149.6057
1.5                     0.940249       -150.8649
1.504                  0.9313472        -151.943
1.508                  0.9280586       -152.9757
1.512                   0.930922       -154.1447
1.516                  0.9392782       -155.6429
1.52                   0.9512917       -157.6373
1.524                  0.9642095       -160.2422
1.528                   0.974748       -163.5124
1.532                  0.9794931       -167.4507
1.536                  0.9752366       -172.0242
1.54                   0.9592169       -177.1794
1.544                  0.9292765        177.1441
1.548                  0.8839502        171.0056
1.552                  0.8225049        164.4561
1.556                   0.744943        157.5325
1.56                   0.6519774        150.2481
1.564                  0.5449873        142.5718
1.568                  0.4259631        134.3662
1.572                  0.2974814        125.1544
1.576                  0.1629891        112.7019
1.58                  0.03704574         59.5671
1.584                  0.1236179       -56.94745
1.588                  0.2588941       -72.07378
1.592                  0.3896817       -81.82221
1.596                  0.5119215       -90.25145
1.6                    0.6228244       -98.07076
1.604                  0.7202017       -105.4761
1.608                    0.80246       -112.5196
1.612                  0.8686561       -119.1972
1.616                  0.9185494       -125.4766
1.62                   0.9526369       -131.3091
1.624                  0.9721615       -136.6355
1.628                  0.9790902       -141.3926
1.632                  0.9760444        -145.521
1.636                  0.9661686       -148.9769
1.64                   0.9529157       -151.7483
1.644                  0.9397329        -153.872
1.648                   0.929661       -155.4464
1.652                  0.9249115       -156.6299
1.656                  0.9265368       -157.6189
1.66                   0.9343189       -158.6107
1.664                  0.9469321       -159.7637
1.668                  0.9623197       -161.1725
1.672                  0.9781552       -162.8634
1.676                  0.9922599       -164.8054
1.68                    1.002912       -166.9274
1.684                   1.009029       -169.1367
1.688                   1.010246       -171.3327
1.692                   1.006902       -173.4196
1.696                  0.9999545       -175.3159
1.7                    0.9908373       -176.9643
1.704                  0.9812459         -178.34
1.708                  0.9728859       -179.4569
1.712                  0.9671993        179.6322
1.716                  0.9651224        178.8432
1.72                   0.9669309        178.0762
1.724                  0.9722161        177.2358
1.728                  0.9799982        176.2495
1.732                  0.9889386        175.0784
1.736                  0.9975969        173.7205
1.74                     1.00467        172.2055
1.744                   1.009181        170.5864
1.748                   1.010598        168.9295
1.752                   1.008885        167.3045
1.756                   1.004484        165.7756
1.76                   0.9982342        164.3929
1.764                  0.9912465        163.1853
1.768                  0.9847251        162.1552
1.772                  0.9797743        161.2771
1.776                  0.9772106        160.5007
1.78                   0.9774236        159.7601
1.784                  0.9803153         158.986
1.788                  0.9853339        158.1196
1.792                  0.9915919        157.1226
1.796                  0.9980372        155.9821
1.8                     1.003636        154.7107
1.804                   1.007538        153.3418
1.808                   1.009193        151.9228
1.812                   1.008426        150.5079
1.816                   1.005446        149.1496
1.82                    1.000805         147.892
1.824                  0.9953119        146.7642
1.828                  0.9899032        145.7753
1.832                  0.9854908        144.9122
1.836                  0.9828079        144.1412
1.84                    0.982283        143.4135
1.844                  0.9839668        142.6744
1.848                  0.9875323        141.8735
1.852                   0.992343        140.9739
1.856                  0.9975753        139.9581
1.86                    1.002365        138.8292
1.864                   1.005949        137.6094
1.868                   1.007784        136.3346
1.872                   1.007619        135.0489
1.876                   1.005528        133.7975
1.88                     1.00189        132.6206
1.884                  0.9973318        131.5468
1.888                  0.9926228        130.5891
1.892                  0.9885542         129.742
1.896                  0.9858048        128.9817
1.9                     0.984824          128.27
1.904                  0.9857537        127.5609
1.908                  0.9884071        126.8097
1.912                  0.9923086        125.9805
1.916                  0.9967837        125.0529
1.92                     1.00108        124.0242
1.924                   1.004496        122.9087
1.928                   1.006489        121.7349
1.932                   1.006758          120.54
1.936                   1.005284        119.3643
1.94                    1.002329        118.2452
1.944                  0.9983921        117.2116
1.948                  0.9941339        116.2794
1.952                  0.9902652        115.4481
1.956                  0.9874322        114.7009
1.96                   0.9861035        114.0067
1.964                  0.9864883        113.3256
1.968                  0.9885012        112.6162
1.972                  0.9917802        111.8433
1.976                  0.9957556        110.9841
1.98                   0.9997521        110.0312
1.984                   1.003105        108.9936
1.988                   1.005266        107.8939
1.992                   1.005891        106.7645
1.996                   1.004887        105.6424
2                       1.002425        104.5635
2.004                  0.9989141        103.5574
2.008                  0.9949338        102.6425
2.012                  0.9911445        101.8227
2.016                   0.988177        101.0864
2.02                   0.9865251        100.4078
2.024                   0.986458        99.75093
2.028                  0.9879729        99.07679
2.032                  0.9907967        98.34982
2.036                  0.9944374        97.54466
2.04                   0.9982715        96.65001
2.044                   1.001652        95.67006
2.048                   1.004017        94.62302
2.052                   1.004972        93.53776
2.056                   1.004359        92.44908
2.06                    1.002271        91.39245
2.064                  0.9990432        90.39871
2.068                  0.9951981        89.48912
2.072                  0.9913653        88.67171
2.076                  0.9881781        87.93935
2.08                   0.9861661        87.27039
2.084                  0.9856618        86.63193
2.088                  0.9867402        85.98573
2.092                  0.9892053        85.29511
2.096                  0.9926257        84.53158
2.1                    0.9964112        83.67969
2.104                  0.9999152        82.73916
2.108                   1.002543        81.72434
2.112                   1.003845         80.6614
2.116                   1.003589        79.58397
2.12                    1.001796        78.52809
2.124                   0.998734        77.52673
2.128                   0.994884        76.60477
2.132                  0.9908624        75.77465
2.136                  0.9873236        75.03372
2.14                   0.9848508        74.36399
2.144                  0.9838528        73.73465
2.148                  0.9844893        73.10716
2.152                  0.9866405        72.44239
2.156                  0.9899263        71.70762
2.16                   0.9937744        70.88237
2.164                   0.997518        69.96145
2.168                   1.000509        68.95539
2.172                   1.002221        67.88816
2.176                   1.002335        66.79316
2.18                    1.000787        65.70812
2.184                   0.997782        64.66952
2.188                  0.9937641        63.70707
2.192                  0.9893544        62.83865
2.196                  0.9852523        62.06687
2.2                    0.9821215        61.37749
2.204                  0.9804744         60.7411
2.208                  0.9805769        60.11771
2.212                  0.9823976         59.4638
2.216                  0.9856079         58.7404
2.22                   0.9896392        57.92001
2.224                  0.9937794        56.99116
2.228                  0.9972942         55.9598
2.232                  0.9995446        54.84779
2.236                    1.00009        53.68913
2.24                   0.9987559        52.52474
2.244                  0.9956674        51.39658
2.248                  0.9912342        50.34142
2.252                   0.986097        49.38495
2.256                   0.981032        48.53684
2.26                   0.9768286        47.78776
2.264                  0.9741539         47.1096
2.268                  0.9734306        46.45919
2.272                  0.9747519        45.78566
2.276                  0.9778567        45.03975
2.28                   0.9821699        44.18274
2.284                  0.9868979        43.19325
2.288                  0.9911627         42.0702
2.292                  0.9941432        40.83234
2.296                  0.9952048        39.51473
2.3                    0.9939986        38.16345
2.304                    0.99052        36.82907
2.308                  0.9851199        35.55962
2.312                   0.978467        34.39329
2.316                  0.9714588         33.3515
2.32                   0.9650897        32.43342
2.324                  0.9602876        31.61339
2.328                  0.9577458        30.84283
2.332                  0.9577828        30.05738
2.336                  0.9602653        29.18803
2.34                    0.964615        28.17382
2.344                  0.9698967        26.97261
2.348                  0.9749698        25.56746
2.352                  0.9786674        23.96803