! TOUCHSTONE file generated by CST MICROWAVE STUDIO
! Date and time: Tue Jun 14 13:48:58 2022
! Project name: AppElm_antenne_patch_FR4.cst
! Parameters = {L=45; W=58.5; e=0.035; h=1.6; lambda=0.190476; ls=120; w0=2.54; w1=0.847; ws=120; y0=18; y1=28.56}
! Header version: 2018
! Port assignment regex: !\s*Touchstone port\s*([0-9]+)\s*=\s*(CST MWS port|CST DS port)\s*([0-9]+|Zmin|Zmax)\s*\(\"(.*)\"\)(\s*mode\s*([0-9]+))?.*
! Touchstone port assignment:
! Touchstone port 1 = CST MWS port 1 ("")
# GHz S MA R 50
0                      0.9897471              -0
0.004                  0.9904085       -10.08595
0.008                  0.9922951       -20.07725
0.012                  0.9951302       -29.88411
0.016                  0.9985026        -39.4256
0.02                    1.001932       -48.63238
0.024                   1.004942       -57.44789
0.028                    1.00713        -65.8285
0.032                    1.00822       -73.74287
0.036                   1.008102        -81.1713
0.04                    1.006843       -88.10517
0.044                   1.004668       -94.54673
0.048                   1.001932       -100.5091
0.052                  0.9990611       -106.0161
0.056                  0.9964889       -111.1018
0.06                   0.9945896       -115.8086
0.064                  0.9936209        -120.185
0.068                  0.9936863       -124.2815
0.072                  0.9947227       -128.1464
0.076                   0.996517       -131.8224
0.08                   0.9987461       -135.3429
0.084                   1.001034       -138.7308
0.088                   1.003014       -141.9983
0.092                   1.004386       -145.1487
0.096                   1.004961       -148.1781
0.1                     1.004683       -151.0792
0.104                   1.003637       -153.8442
0.108                   1.002029       -156.4677
0.112                   1.000147       -158.9491
0.116                  0.9983151       -161.2946
0.12                     0.99684       -163.5168
0.124                  0.9959581       -165.6343
0.128                  0.9957982       -167.6693
0.132                  0.9963631        -169.645
0.136                  0.9975324       -171.5819
0.14                   0.9990873       -173.4962
0.144                   1.000751       -175.3969
0.148                   1.002238       -177.2862
0.152                   1.003301       -179.1592
0.156                   1.003774        178.9935
0.16                    1.003592        177.1844
0.164                   1.002804         175.426
0.168                   1.001559        173.7287
0.172                   1.000083        172.0985
0.176                  0.9986335        170.5355
0.18                   0.9974604        169.0339
0.184                   0.996761        167.5828
0.188                  0.9966467        166.1673
0.192                  0.9971253        164.7715
0.196                  0.9981013        163.3807
0.2                    0.9993946        161.9839
0.204                   1.000774        160.5756
0.208                      1.002        159.1559
0.212                   1.002861        157.7305
0.216                   1.003215        156.3093
0.22                    1.003008        154.9044
0.224                   1.002284        153.5282
0.228                   1.001174        152.1907
0.232                  0.9998758        150.8981
0.236                  0.9986161        149.6516
0.24                   0.9976142        148.4468
0.244                  0.9970413        147.2746
0.248                  0.9969927        146.1226
0.252                  0.9974705        144.9774
0.256                  0.9983849        143.8266
0.26                   0.9995703        142.6613
0.264                   1.000817        141.4772
0.268                   1.001906        140.2753
0.272                    1.00265        139.0616
0.276                   1.002922        137.8458
0.28                    1.002678        136.6397
0.284                   1.001966        135.4548
0.288                   1.000911        134.3006
0.292                  0.9996988        133.1831
0.296                   0.998542        132.1031
0.3                    0.9976426        131.0566
0.304                  0.9971564        130.0351
0.308                  0.9971665         129.027
0.312                  0.9976685        128.0199
0.316                   0.998571        127.0027
0.32                   0.9997137        125.9674
0.324                   1.000895        124.9105
0.328                   1.001909        123.8336
0.332                    1.00258        122.7428
0.336                   1.002792        121.6479
0.34                     1.00251        120.5602
0.344                   1.001785         119.491
0.348                   1.000745        118.4493
0.352                   0.999571        117.4407
0.356                  0.9984692        116.4656
0.36                   0.9976326        115.5199
0.364                  0.9972076        114.5952
0.368                  0.9972684        113.6803
0.372                  0.9978033        112.7632
0.376                  0.9987176        111.8332
0.38                   0.9998498         110.883
0.384                   1.001002        109.9097
0.388                   1.001972        108.9153
0.392                   1.002591        107.9062
0.396                   1.002753        106.8922
0.4                      1.00243        105.8847
0.404                   1.001677        104.8947
0.408                   1.000627         103.931
0.412                  0.9994614        102.9987
0.416                  0.9983857         102.098
0.42                   0.9975879        101.2245
0.424                  0.9972088        100.3695
0.428                  0.9973155        99.52184
0.432                  0.9978892        98.66963
0.436                  0.9988293        97.80255
0.44                   0.9999707        96.91359
0.444                   1.001113        96.00029
0.448                   1.002057        95.06501
0.452                   1.002638        94.11463
0.456                   1.002753        93.15919
0.46                    1.002383        92.21016
0.464                   1.001589        91.27855
0.468                   1.000511        90.37297
0.472                  0.9993339        89.49819
0.476                   0.998265        88.65412
0.48                   0.9974916        87.83583
0.484                  0.9971504        87.03443
0.488                  0.9973022        86.23839
0.492                  0.9979212        85.43583
0.496                   0.998899        84.61649
0.5                     1.000064        83.77365
0.504                   1.001213         82.9052
0.508                   1.002143        82.01404
0.512                   1.002691        81.10744
0.516                   1.002762         80.1958
0.52                    1.002339        79.29088
0.524                   1.001495        78.40378
0.528                   1.000375        77.54305
0.532                  0.9991736        76.71313
0.536                  0.9981001        75.91355
0.54                   0.9973434        75.13895
0.544                  0.9970381        74.37985
0.548                  0.9972391        73.62444
0.552                  0.9979126        72.86056
0.556                  0.9989411        72.07794
0.56                    1.000145        71.27008
0.564                   1.001312        70.43523
0.568                   1.002239        69.57678
0.572                   1.002761        68.70258
0.576                   1.002787         67.8235
0.58                    1.002308        66.95171
0.584                   1.001405        66.09848
0.588                   1.000234        65.27232
0.592                  0.9989964        64.47743
0.596                  0.9979101        63.71293
0.6                    0.9971664        62.97285
0.604                  0.9968979        62.24713
0.608                  0.9971541        61.52343
0.612                  0.9978922        60.78925
0.616                   0.998984        60.03424
0.62                    1.000239        59.25201
0.624                   1.001437        58.44125
0.628                   1.002367         57.6059
0.632                   1.002867        56.75443
0.636                   1.002845        55.89836
0.64                    1.002303         55.0503
0.644                   1.001331        54.22184
0.648                   1.000096        53.42151
0.652                   0.998812         52.6533
0.656                  0.9977044        51.91579
0.66                   0.9969688         51.2024
0.664                  0.9967374        50.50233
0.668                  0.9970538         49.8026
0.672                  0.9978653        49.09026
0.676                  0.9990313        48.35476
0.68                    1.000348        47.58986
0.684                   1.001585        46.79466
0.688                   1.002525        45.97372
0.692                   1.003002        45.13626
0.696                   1.002928        44.29454
0.7                     1.002312        43.46177
0.704                   1.001258        42.64992
0.708                  0.9999456        41.86759
0.712                   0.998602        41.11855
0.716                  0.9974627        40.40085
0.72                   0.9967298        39.70715
0.724                  0.9965353        39.02582
0.728                   0.996917        38.34309
0.732                  0.9978109        37.64544
0.736                  0.9990625        36.92207
0.74                    1.000453        36.16683
0.744                   1.001739        35.37925
0.748                   1.002694        34.56462
0.752                   1.003147          33.733
0.756                   1.003016        32.89748
0.76                    1.002318        32.07205
0.764                   1.001168        31.26912
0.768                  0.9997628        30.49748
0.772                  0.9983454        29.76063
0.776                  0.9971644        29.05607
0.78                   0.9964291        28.37559
0.784                  0.9962725        27.70661
0.788                  0.9967264         27.0344
0.792                  0.9977148        26.34474
0.796                  0.9990667        25.62649
0.8                     1.000546        24.87355
0.804                   1.001894        24.08592
0.808                   1.002872        23.26967
0.812                   1.003305        22.43582
0.816                   1.003113        21.59849
0.82                    1.002322        20.77251
0.824                   1.001063        19.97094
0.828                  0.9995494        19.20277
0.832                  0.9980439        18.47132
0.836                  0.9968098        17.77344
0.84                   0.9960666        17.09997
0.844                  0.9959496        16.43719
0.848                  0.9964846        15.76928
0.852                  0.9975822        15.08114
0.856                  0.9990529        14.36114
0.86                     1.00064        13.60321
0.864                   1.002066        12.80782
0.868                    1.00308        11.98192
0.872                   1.003498        11.13762
0.876                   1.003242        10.29024
0.88                    1.002347        9.455647
0.884                   1.000962         8.64767
0.888                  0.9993214        7.875654
0.892                  0.9977084        7.142745
0.896                  0.9964061        6.445148
0.9                    0.9956464        5.772605
0.904                  0.9955688         5.11009
0.908                  0.9961936        4.440448
0.912                  0.9974167        3.747508
0.916                  0.9990277        3.019011
0.92                    1.000746        2.248793
0.924                   1.002272        1.437826
0.928                   1.003335       0.5939929
0.932                   1.003745      -0.2692981
0.936                   1.003421       -1.135369
0.94                     1.00241       -1.987041
0.944                   1.000878       -2.809513
0.948                  0.9990838       -3.592929
0.952                  0.9973369       -4.334223
0.956                  0.9959435       -5.037881
0.96                   0.9951527       -5.715373
0.964                  0.9951105       -6.383275
0.968                  0.9958326       -7.060338
0.972                  0.9971994       -7.764091
0.976                  0.9989763       -8.507654
0.98                    1.000855       -9.297407
0.984                   1.002507       -10.13192
0.988                   1.003641       -11.00225
0.992                   1.004051       -11.89352
0.996                   1.003656       -12.78742
1                       1.002512       -13.66516
1.004                   1.000805       -14.51067
1.008                  0.9988223       -15.31333
1.012                  0.9969045       -16.07004
1.016                  0.9953875       -16.78595
1.02                   0.9945427       -17.47394
1.024                  0.9945273       -18.15236
1.028                  0.9953539       -18.84199
1.032                  0.9968863       -19.56209
1.036                  0.9988625       -20.32691
1.04                     1.00094       -21.14331
1.044                   1.002757       -22.00945
1.048                    1.00399       -22.91525
1.052                   1.004418       -23.84412
1.056                   1.003951       -24.77574
1.06                    1.002654       -25.68926
1.064                   1.000737       -26.56702
1.068                  0.9985186       -27.39724
1.072                  0.9963793       -28.17651
1.076                  0.9946927        -28.9107
1.08                   0.9937608       -29.61419
1.084                  0.9937578       -30.30759
1.088                  0.9946968        -31.0141
1.092                  0.9964243       -31.75529
1.096                  0.9986461        -32.5471
1.1                     1.000979       -33.39713
1.104                   1.003015       -34.30324
1.108                   1.004394       -35.25412
1.112                   1.004866       -36.23113
1.116                   1.004331       -37.21154
1.12                    1.002859       -38.17189
1.124                   1.000685       -39.09222
1.128                   0.998168       -39.95909
1.132                  0.9957365       -40.76849
1.136                  0.9938142       -41.52681
1.14                   0.9927454        -42.2502
1.144                  0.9927315       -42.96199
1.148                   0.993791       -43.68857
1.152                  0.9957529       -44.45459
1.156                  0.9982856       -45.27843
1.16                    1.000953       -46.16887
1.164                   1.003291       -47.12378
1.168                   1.004886       -48.13045
1.172                   1.005447       -49.16789
1.176                   1.004853       -50.21012
1.18                    1.003178       -51.23041
1.184                   1.000682        -52.2055
1.188                  0.9977742       -53.11959
1.192                  0.9949445       -53.96741
1.196                  0.9926847       -54.75567
1.2                    0.9913996       -55.50251
1.204                  0.9913326       -56.23466
1.208                   0.992517        -56.9828
1.212                  0.9947657       -57.77585
1.216                  0.9977011        -58.6357
1.22                    1.000821       -59.57324
1.224                   1.003583       -60.58667
1.228                     1.0055       -61.66184
1.232                   1.006219       -62.77476
1.236                   1.005584       -63.89545
1.24                    1.003664        -64.9925
1.244                   1.000749        -66.0381
1.248                  0.9973062       -67.01274
1.252                  0.9939104       -67.90892
1.256                  0.9911472       -68.73319
1.26                    0.989511       -69.50595
1.264                  0.9893122       -70.25837
1.268                  0.9906153       -71.02696
1.272                  0.9932203       -71.84689
1.276                  0.9966944       -72.74543
1.28                    1.000445       -73.73697
1.284                   1.003823       -74.82074
1.288                    1.00623       -75.98116
1.292                    1.00722       -77.19052
1.296                   1.006576        -78.4133
1.3                     1.004349        -79.6116
1.304                   1.000855        -80.7509
1.308                  0.9966398       -81.80573
1.312                  0.9923931       -82.76455
1.316                  0.9888391       -83.63286
1.32                   0.9866096       -84.43348
1.324                  0.9861269       -85.20352
1.328                  0.9875172        -85.9881
1.332                  0.9905779       -86.83199
1.336                  0.9948061       -87.77108
1.34                   0.9994838       -88.82587
1.344                     1.0038       -89.99815
1.348                   1.006988       -91.27101
1.352                    1.00845       -92.61187
1.356                   1.007858       -93.97752
1.36                    1.005214       -95.32035
1.364                   1.000858       -96.59535
1.368                  0.9954356       -97.76712
1.372                  0.9898043       -98.81659
1.376                  0.9849034       -99.74588
1.38                   0.9815939       -100.5801
1.384                  0.9804972       -101.3649
1.388                  0.9818668       -102.1589
1.392                  0.9855244       -103.0231
1.396                  0.9908783       -104.0087
1.4                    0.9970206       -105.1478
1.404                   1.002881       -106.4483
1.408                   1.007406       -107.8927
1.412                   1.009726       -109.4422
1.416                   1.009299        -111.042
1.42                    1.006004       -112.6292
1.424                   1.000175       -114.1408
1.428                  0.9925867       -115.5235
1.432                  0.9843555       -116.7424
1.436                  0.9767894         -117.79
1.44                   0.9711746        -118.692
1.444                  0.9685382       -119.5067
1.448                   0.969432        -120.317
1.452                  0.9737934       -121.2161
1.456                  0.9809249       -122.2878
1.46                   0.9896001       -123.5915
1.464                  0.9982676       -125.1515
1.468                   1.005304       -126.9553
1.472                   1.009264       -128.9572
1.476                   1.009097       -131.0856
1.48                     1.00431       -133.2523
1.484                  0.9950717       -135.3618
1.488                  0.9822434       -137.3226
1.492                  0.9673303       -139.0607
1.496                  0.9523314       -140.5366
1.5                    0.9394711        -141.762
1.504                  0.9308179       -142.8128
1.508                  0.9278422       -143.8284
1.512                  0.9310213       -144.9929
1.516                  0.9396231       -146.4994
1.52                   0.9517433       -148.5133
1.524                  0.9645762        -151.146
1.528                  0.9748077       -154.4492
1.532                  0.9790169       -158.4236
1.536                  0.9740074        -163.035
1.54                    0.957045       -168.2297
1.544                   0.926011       -173.9481
1.548                  0.8794869        179.8671
1.552                  0.8167927        173.2637
1.556                  0.7379873        166.2729
1.56                   0.6438438        158.8975
1.564                  0.5358051        151.0854
1.568                   0.415937         142.648
1.572                  0.2869388        132.9483
1.576                  0.1526901        118.9029
1.58                  0.03763027        48.09525
1.584                  0.1367682       -46.68508
1.588                  0.2712905       -61.97324
1.592                  0.4012993       -71.93376
1.596                  0.5225847       -80.48444
1.6                    0.6323369        -88.3727
1.604                  0.7283899        -95.8148
1.608                  0.8091938        -102.873
1.612                   0.873863       -109.5483
1.616                  0.9222241       -115.8114
1.62                   0.9548468       -121.6149
1.624                  0.9730505       -126.9009
1.628                  0.9788764        -131.607
1.632                  0.9750122       -135.6755
1.636                  0.9646533       -139.0658
1.64                   0.9512756       -141.7706
1.644                  0.9383105       -143.8334
1.648                  0.9287368       -145.3596
1.652                  0.9246594       -146.5137
1.656                  0.9269968       -147.4948
1.66                   0.9353983        -148.498
1.664                  0.9484365        -149.676
1.668                  0.9639997       -151.1161
1.672                  0.9797557       -152.8376
1.676                  0.9935617        -154.804
1.68                    1.003759       -156.9413
1.684                   1.009342       -159.1547
1.688                   1.010028        -161.344
1.692                   1.006231       -163.4142
1.696                  0.9989744       -165.2862
1.7                    0.9897319       -166.9061
1.704                  0.9802142       -168.2532
1.708                  0.9721097       -169.3461
1.712                  0.9668127       -170.2419
1.716                  0.9651869       -171.0273
1.72                    0.967427       -171.8027
1.724                  0.9730498       -172.6614
1.728                  0.9810223       -173.6725
1.732                  0.9899833       -174.8702
1.736                  0.9984993       -176.2527
1.74                      1.0053       -177.7869
1.744                    1.00946        -179.418
1.748                   1.010505        178.9211
1.752                   1.008459        177.2998
1.756                   1.003814        175.7807
1.76                   0.9974494        174.4116
1.764                  0.9904905        173.2183
1.768                  0.9841352        172.1999
1.772                  0.9794572        171.3276
1.776                  0.9772233         170.549
1.78                   0.9777639        169.7973
1.784                  0.9809236        169.0045
1.788                   0.986106        168.1141
1.792                  0.9924004        167.0909
1.796                  0.9987549        165.9252
1.8                     1.004157        164.6323
1.804                   1.007792        163.2475
1.808                   1.009159        161.8191
1.812                   1.008129        160.4008
1.816                   1.004954        159.0443
1.82                    1.000217        157.7917
1.824                  0.9947421        156.6696
1.828                   0.989462        155.6845
1.832                  0.9852643        154.8207
1.836                   0.982844        154.0429
1.84                   0.9825821        153.3015
1.844                  0.9844829        152.5426
1.848                   0.988182        151.7175
1.852                   0.993023        150.7919
1.856                  0.9981807        149.7509
1.86                    1.002808        148.6001
1.864                   1.006173         147.363
1.868                   1.007771        146.0764
1.872                   1.007392        144.7842
1.876                   1.005145        143.5306
1.88                    1.001436         142.354
1.884                   0.996902        141.2812
1.888                  0.9923085        140.3228
1.892                  0.9884256        139.4712
1.896                  0.9858988        138.7013
1.9                    0.9851371        137.9742
1.904                  0.9862431        137.2449
1.908                  0.9889996          136.47
1.912                  0.9929146         135.616
1.916                  0.9973137        134.6646
1.92                    1.001462        133.6152
1.924                   1.004684        132.4835
1.928                   1.006474        131.2983
1.932                   1.006566        130.0967
1.936                   1.004971         128.918
1.94                    1.001972        127.7979
1.944                  0.9980761        126.7635
1.948                   0.993936        125.8286
1.952                   0.990242        124.9913
1.956                  0.9876088        124.2334
1.96                   0.9864682        123.5236
1.964                  0.9869959        122.8228
1.968                  0.9890808        122.0913
1.972                  0.9923491        121.2958
1.976                  0.9962353        120.4156
1.98                    1.000082        119.4452
1.984                   1.003253        118.3943
1.988                   1.005234         117.286
1.992                   1.005711        116.1523
1.996                    1.00462         115.029
2                       1.002146        113.9503
2.004                  0.9987007         112.944
2.008                  0.9948537        112.0268
2.012                  0.9912416        111.2011
2.016                  0.9884634        110.4544
2.02                   0.9869782        109.7611
2.024                  0.9870243        109.0862
2.028                   0.988579        108.3924
2.032                  0.9913624        107.6462
2.036                  0.9948913        106.8241
2.04                   0.9985639        105.9164
2.044                   1.001764        104.9281
2.048                   1.003962        103.8773
2.052                   1.004797        102.7922
2.056                    1.00413        101.7062
2.06                    1.002066        100.6531
2.064                  0.9989381         99.6617
2.068                  0.9952522        98.75173
2.072                  0.9916104        97.92995
2.076                  0.9886117        97.18874
2.08                   0.9867511        96.50688
2.084                  0.9863328        95.85281
2.088                  0.9874161        95.19017
2.092                  0.9898042         94.4845
2.096                  0.9930808        93.70925
2.1                    0.9966832        92.85028
2.104                  0.9999994        91.90785
2.108                    1.00247        90.89589
2.112                   1.003675        89.83945
2.116                   1.003402        88.77053
2.12                    1.001676        87.72312
2.124                  0.9987579         86.7283
2.128                  0.9951039        85.80925
2.132                  0.9912972        84.97737
2.136                  0.9879541        84.22994
2.14                   0.9856217        83.54978
2.144                  0.9846819        82.90777
2.148                  0.9852832        82.26779
2.152                  0.9873118        81.59308
2.156                  0.9904112        80.85295
2.16                   0.9940439        80.02805
2.164                  0.9975843        79.11343
2.168                   1.000423        78.11877
2.172                   1.002063         77.0664
2.176                   1.002202        75.98763
2.18                    1.000775        74.91787
2.184                  0.9979689        73.89148
2.188                  0.9941969        72.93647
2.192                  0.9900377        72.06998
2.196                  0.9861466        71.29475
2.2                     0.983148        70.59799
2.204                  0.9815282        69.95257
2.208                  0.9815469        69.32137
2.212                  0.9831873        68.66374
2.216                  0.9861545        67.94285
2.22                   0.9899258        67.13226
2.224                  0.9938391        66.22024
2.228                  0.9972038        65.21138
2.232                   0.999412        64.12527
2.236                   1.000035        62.99318
2.24                   0.9988917        61.85327
2.244                  0.9960783        60.74509
2.248                  0.9919615        59.70369
2.252                  0.9871288        58.75414
2.256                   0.982303        57.90676
2.26                    0.978229        57.15426
2.264                  0.9755478        56.47164
2.268                  0.9746807        55.81946
2.272                  0.9757467        55.15036
2.276                   0.978533        54.41753
2.28                   0.9825257        53.58322
2.284                  0.9869942        52.62532
2.288                  0.9911133        51.54053
2.292                  0.9940947         50.3445
2.296                   0.995313        49.06871
2.3                    0.9944018        47.75582
2.304                  0.9913155        46.45352
2.308                  0.9863458        45.20801
2.312                  0.9800924        44.05695
2.316                  0.9733851        43.02297
2.32                    0.967164        42.10811
2.324                  0.9623275        41.29109
2.328                  0.9595739        40.52845
2.332                  0.9592619        39.76059
2.336                  0.9613285         38.9218
2.34                   0.9652813        37.95219
2.344                  0.9702707        36.80825
2.348                  0.9752246        35.46979
2.352                  0.9790165        33.94198