! TOUCHSTONE file generated by CST MICROWAVE STUDIO
! Date and time: Tue Jun 14 13:48:53 2022
! Project name: AppElm_antenne_patch_FR4.cst
! Parameters = {L=45; W=58.5; e=0.035; h=1.6; lambda=0.190476; ls=120; w0=2.54; w1=0.847; ws=120; y0=18; y1=22.61}
! Header version: 2018
! Port assignment regex: !\s*Touchstone port\s*([0-9]+)\s*=\s*(CST MWS port|CST DS port)\s*([0-9]+|Zmin|Zmax)\s*\(\"(.*)\"\)(\s*mode\s*([0-9]+))?.*
! Touchstone port assignment:
! Touchstone port 1 = CST MWS port 1 ("")
# GHz S MA R 50
0                      0.9868013              -0
0.004                  0.9875652       -9.948102
0.008                  0.9897542       -19.80377
0.012                  0.9930753       -29.47936
0.016                  0.9970896       -38.89606
0.02                    1.001277        -47.9864
0.024                   1.005109       -56.69536
0.028                   1.008118       -64.98027
0.032                   1.009957       -72.80998
0.036                   1.010443       -80.16386
0.04                     1.00957       -87.03111
0.044                   1.007509       -93.41044
0.048                   1.004582       -99.31011
0.052                   1.001216       -104.7483
0.056                  0.9978838       -109.7531
0.06                   0.9950409       -114.3618
0.064                  0.9930582       -118.6195
0.068                  0.9921706        -122.576
0.072                  0.9924478       -126.2821
0.076                  0.9937868       -129.7858
0.08                   0.9959357        -133.128
0.084                  0.9985367       -136.3403
0.088                   1.001185       -139.4433
0.092                   1.003489       -142.4467
0.096                   1.005129       -145.3515
0.1                     1.005897       -148.1515
0.104                   1.005723       -150.8371
0.108                   1.004679       -153.3979
0.112                   1.002964       -155.8258
0.116                   1.000869       -158.1177
0.12                    0.998735       -160.2765
0.124                  0.9968945       -162.3126
0.128                  0.9956253       -164.2426
0.132                  0.9951056       -166.0877
0.136                  0.9953895       -167.8715
0.14                   0.9964015        -169.616
0.144                  0.9979532         -171.34
0.148                  0.9997775       -173.0557
0.152                   1.001574       -174.7683
0.156                   1.003058        -176.476
0.16                    1.004003        -178.171
0.164                   1.004278       -179.8411
0.168                   1.003858        178.5271
0.172                   1.002831        176.9468
0.176                   1.001381        175.4275
0.18                   0.9997523        173.9744
0.184                  0.9982152        172.5864
0.188                  0.9970184        171.2565
0.192                  0.9963501        169.9726
0.196                  0.9963072        168.7195
0.2                    0.9968817        167.4809
0.204                  0.9979634        166.2423
0.208                  0.9993612        164.9933
0.212                   1.000836        163.7285
0.216                   1.002143        162.4487
0.22                    1.003069        161.1599
0.224                   1.003469        159.8724
0.228                   1.003286        158.5988
0.232                   1.002561        157.3515
0.236                   1.001424        156.1411
0.24                    1.000068        154.9746
0.244                  0.9987248        153.8535
0.248                  0.9976173        152.7742
0.252                  0.9969285        151.7283
0.256                  0.9967684        150.7037
0.26                    0.997156        149.6867
0.264                  0.9980172        148.6648
0.268                  0.9991999         147.628
0.272                   1.000499         146.571
0.276                   1.001694        145.4936
0.28                    1.002584        144.4005
0.284                   1.003023        143.3008
0.288                   1.002942        142.2058
0.292                    1.00236        141.1275
0.296                   1.001379        140.0763
0.3                      1.00017        139.0594
0.304                  0.9989391        138.0796
0.308                  0.9978963        137.1347
0.312                  0.9972179        136.2176
0.316                  0.9970173        135.3179
0.32                   0.9973252        134.4233
0.324                  0.9980841        133.5219
0.328                  0.9991604        132.6042
0.332                   1.000367        131.6649
0.336                   1.001496        130.7033
0.34                    1.002354        129.7236
0.344                   1.002798         128.734
0.348                   1.002753        127.7454
0.352                    1.00223        126.7692
0.356                   1.001321        125.8158
0.36                    1.000183        124.8924
0.364                  0.9990116        124.0022
0.368                  0.9980104        123.1434
0.372                  0.9973514        122.3096
0.376                  0.9971478         121.491
0.38                   0.9974336        120.6759
0.384                  0.9981572        119.8528
0.388                   0.999192        119.0124
0.392                   1.000357        118.1495
0.396                   1.001451        117.2633
0.4                     1.002286        116.3579
0.404                   1.002717        115.4414
0.408                   1.002672        114.5241
0.412                   1.002159        113.6177
0.416                   1.001268        112.7321
0.42                    1.000154        111.8747
0.424                  0.9990093        111.0486
0.428                  0.9980343        110.2521
0.432                  0.9973988         109.479
0.436                  0.9972145        108.7194
0.44                   0.9975134        107.9618
0.444                  0.9982432        107.1949
0.448                  0.9992759        106.4096
0.452                   1.000431        105.6008
0.456                   1.001507        104.7678
0.46                    1.002316         103.915
0.464                   1.002717        103.0505
0.468                    1.00264        102.1851
0.472                   1.002099          101.33
0.476                   1.001185        100.4956
0.48                    1.000057        99.68892
0.484                  0.9989115        98.91286
0.488                   0.997949         98.1655
0.492                  0.9973387        97.44028
0.496                  0.9971883        96.72715
0.5                    0.9975251        96.01442
0.504                  0.9982901        95.29071
0.508                  0.9993488        94.54707
0.512                   1.000515        93.77859
0.516                   1.001584        92.98513
0.52                    1.002367        92.17139
0.524                   1.002727          91.346
0.528                   1.002598        90.52001
0.532                   1.002001        89.70506
0.536                   1.001039        88.91131
0.54                   0.9998774        88.14576
0.544                    0.99872        87.41088
0.548                  0.9977704        86.70418
0.552                  0.9971971        86.01856
0.556                  0.9971031        85.34344
0.56                   0.9975065        84.66668
0.564                  0.9983376        83.97682
0.568                  0.9994506        83.26502
0.572                   1.000649        82.52675
0.576                   1.001723         81.7625
0.58                    1.002481        80.97765
0.584                   1.002789        80.18153
0.588                    1.00259        79.38574
0.592                   1.001917        78.60226
0.596                   1.000884         77.8413
0.6                    0.9996719        77.10958
0.604                  0.9984927        76.40906
0.608                  0.9975556        75.73649
0.612                  0.9970279         75.0839
0.616                  0.9970059        74.43997
0.62                   0.9974958        73.79203
0.624                  0.9984129         73.1284
0.628                  0.9995958        72.44045
0.632                   1.000836        71.72415
0.636                   1.001913        70.98084
0.64                    1.002636        70.21676
0.644                   1.002874        69.44216
0.648                   1.002582        68.66939
0.652                   1.001807        67.91083
0.656                   1.000682        67.17672
0.66                    0.999403        66.47345
0.664                  0.9981948         65.8022
0.668                  0.9972728        65.15876
0.672                  0.9968027        64.53409
0.676                  0.9968718        63.91591
0.68                   0.9974709        63.29089
0.684                  0.9984963        62.64709
0.688                  0.9997674        61.97615
0.692                   1.001059        61.27473
0.696                   1.002143        60.54513
0.7                     1.002824        59.79478
0.704                   1.002979        59.03499
0.708                   1.002576        58.27898
0.712                   1.001681        57.53959
0.716                   1.000449        56.82711
0.72                    0.999094         56.1474
0.724                  0.9978564        55.50075
0.728                  0.9969576        54.88172
0.732                  0.9965612           54.28
0.736                   0.996742        53.68215
0.74                    0.997472        53.07413
0.744                  0.9986242        52.44376
0.748                  0.9999956        51.78302
0.752                   1.001343        51.08945
0.756                   1.002425        50.36657
0.76                    1.003048         49.6232
0.764                   1.003096        48.87191
0.768                   1.002554         48.1269
0.772                   1.001513        47.40155
0.776                    1.00015         46.7061
0.78                   0.9987032        46.04577
0.784                  0.9974298        45.41975
0.788                  0.9965579        44.82114
0.792                  0.9962468         44.2381
0.796                  0.9965567        43.65593
0.8                    0.9974365        43.05968
0.804                  0.9987322        42.43704
0.808                   1.000215        41.78044
0.812                   1.001619         41.0885
0.816                   1.002694        40.36615
0.82                    1.003244        39.62381
0.824                   1.003165        38.87552
0.828                   1.002463        38.13656
0.832                   1.001255        37.42086
0.836                  0.9997489        36.73852
0.84                    0.998208        36.09398
0.844                  0.9969068        35.48505
0.848                  0.9960807        34.90312
0.852                  0.9958827        34.33457
0.856                  0.9963544        33.76321
0.86                   0.9974174        33.17323
0.864                  0.9988855        32.55214
0.868                   1.000499        31.89302
0.872                   1.001971        31.19575
0.876                   1.003037        30.46701
0.88                    1.003502        29.71901
0.884                   1.003276        28.96749
0.888                   1.002391        28.22893
0.892                   1.000993        27.51783
0.896                  0.9993258         26.8441
0.9                    0.9976812        26.21119
0.904                  0.9963537        25.61529
0.908                  0.9955849        25.04578
0.912                  0.9955194        24.48704
0.916                  0.9961764        23.92123
0.92                   0.9974449        23.33158
0.924                  0.9991025        22.70552
0.928                   1.000855        22.03694
0.932                    1.00239        21.32727
0.936                   1.003428        20.58517
0.94                     1.00378          19.825
0.944                   1.003371        19.06433
0.948                   1.002264        18.32105
0.952                   1.000642        17.61021
0.956                  0.9987857        16.94141
0.96                   0.9970226        16.31692
0.964                  0.9956686        15.73099
0.968                  0.9949716        15.17065
0.972                  0.9950653        14.61794
0.976                  0.9959418        14.05313
0.98                   0.9974518         13.4584
0.984                  0.9993303        12.82115
0.988                   1.001244        12.13627
0.992                    1.00285        11.40701
0.996                   1.003858        10.64435
1                        1.00408        9.865078
1.004                   1.003463        9.088926
1.008                   1.002103        8.335286
1.012                   1.000229        7.619859
1.016                  0.9981648         6.95184
1.02                   0.9962763         6.33204
1.024                  0.9949043        5.752428
1.028                  0.9943031        5.197289
1.032                  0.9945919        4.645935
1.036                  0.9957303        4.076489
1.04                   0.9975239        3.469974
1.044                  0.9996577        2.813838
1.048                   1.001753        2.104215
1.052                   1.003433        1.346533
1.056                   1.004392        0.554509
1.06                    1.004446      -0.2522282
1.064                   1.003569       -1.051419
1.068                   1.001898        -1.82189
1.072                  0.9997132       -2.547188
1.076                  0.9973913       -3.218605
1.08                    0.995343       -3.837035
1.084                  0.9939387       -4.413228
1.088                  0.9934404       -4.966178
1.092                  0.9939506       -5.519805
1.096                  0.9953903       -6.098557
1.1                    0.9975113       -6.722754
1.104                  0.9999397       -7.404871
1.108                   1.002242        -8.14734
1.112                   1.004004       -8.942128
1.116                     1.0049        -9.77235
1.12                    1.004753       -10.61492
1.124                   1.003566       -11.44465
1.128                   1.001525       -12.23816
1.132                  0.9989728       -12.97814
1.136                  0.9963494       -13.65641
1.14                   0.9941205       -14.27595
1.144                  0.9926927        -14.8508
1.148                   0.992337         -15.404
1.152                  0.9931357       -15.96344
1.156                   0.994963       -16.55671
1.16                   0.9975049       -17.20587
1.164                   1.000315       -17.92333
1.168                   1.002893       -18.70975
1.172                   1.004775       -19.55399
1.176                    1.00561       -20.43517
1.18                    1.005229       -21.32614
1.184                   1.003667        -22.1979
1.188                   1.001173       -23.02438
1.192                   0.998161       -23.78694
1.196                  0.9951533       -24.47794
1.2                     0.992685       -25.10277
1.204                  0.9912094       -25.67955
1.208                  0.9910122       -26.23632
1.212                  0.9921528       -26.80602
1.216                   0.994448       -27.42031
1.22                   0.9975023       -28.10349
1.224                   1.000778       -28.86803
1.228                   1.003689       -29.71247
1.232                   1.005707       -30.62184
1.236                   1.006448       -31.57033
1.24                    1.005746       -32.52548
1.244                   1.003679       -33.45343
1.248                   1.000568       -34.32431
1.252                  0.9969264       -35.11754
1.256                  0.9933801       -35.82588
1.26                   0.9905598       -36.45764
1.264                  0.9889865       -37.03616
1.268                  0.9889703       -37.59618
1.272                  0.9905458       -38.17755
1.276                  0.9934583       -38.81761
1.28                    0.997206       -39.54403
1.284                   1.001128       -40.36971
1.288                   1.004523       -41.29074
1.292                   1.006768       -42.28727
1.296                   1.007429       -43.32707
1.3                     1.006335       -44.37059
1.304                   1.003614       -45.37716
1.308                   0.999679       -46.31143
1.312                  0.9951758       -47.14956
1.316                   0.990875       -47.88423
1.32                   0.9875448       -48.52732
1.324                   0.985809        -49.1092
1.328                  0.9860229       -49.67403
1.332                  0.9881953       -50.27175
1.336                  0.9919771       -50.94824
1.34                   0.9967182       -51.73656
1.344                   1.001582       -52.65082
1.348                   1.005693       -53.68412
1.352                   1.008286       -54.81012
1.356                   1.008836       -55.98761
1.36                    1.007153       -57.16672
1.364                   1.003417       -58.29642
1.368                  0.9981732       -59.33236
1.372                  0.9922511       -60.24463
1.376                  0.9866461        -61.0243
1.38                   0.9823493       -61.68741
1.384                   0.980164       -62.27437
1.388                  0.9805418       -62.84407
1.392                  0.9834779       -63.46293
1.396                  0.9884949       -64.19171
1.4                    0.9947199       -65.07351
1.404                   1.001038       -66.12605
1.408                   1.006288        -67.3392
1.412                   1.009453       -68.67764
1.416                   1.009835       -70.08674
1.42                    1.007172       -71.50036
1.424                   1.001696       -72.84999
1.428                  0.9941311       -74.07475
1.432                  0.9856068       -75.13176
1.436                  0.9775038       -76.00618
1.44                   0.9712291       -76.71836
1.444                  0.9679541       -77.32522
1.448                  0.9683651       -77.91282
1.452                  0.9724928       -78.58071
1.456                  0.9796691       -79.42139
1.46                    0.988631       -80.50178
1.464                  0.9977387       -81.85136
1.468                   1.005253       -83.45926
1.472                   1.009615       -85.27834
1.476                   1.009687       -87.23315
1.48                    1.004933       -89.22993
1.484                  0.9955316        -91.1672
1.488                  0.9824092       -92.94806
1.492                  0.9671849       -94.49523
1.496                  0.9519989        -95.7691
1.5                    0.9392101       -96.78663
1.504                  0.9309703       -97.63426
1.508                    0.92874       -98.46557
1.512                  0.9328714       -99.47805
1.516                  0.9424061       -100.8735
1.52                    0.955158       -102.8179
1.524                  0.9680405       -105.4172
1.528                  0.9775074       -108.7138
1.532                  0.9799811       -112.6983
1.536                  0.9721923       -117.3276
1.54                   0.9514168       -122.5416
1.544                  0.9156204       -128.2759
1.548                  0.8635349       -134.4701
1.552                  0.7946854       -141.0753
1.556                  0.7093796       -148.0608
1.56                   0.6086702       -155.4279
1.564                  0.4942989       -163.2454
1.568                  0.3686396       -171.7642
1.572                  0.2347401         178.055
1.576                 0.09762361        159.5044
1.58                  0.05912078        23.10972
1.584                  0.1937576       -7.190176
1.588                  0.3292117       -18.45241
1.592                  0.4574775       -27.30375
1.596                  0.5752455       -35.29573
1.6                    0.6799825       -42.79336
1.604                  0.7697825       -49.90086
1.608                  0.8434099       -56.63476
1.612                  0.9003548       -62.97263
1.616                  0.9408756       -68.87072
1.62                   0.9660146       -74.27258
1.624                  0.9775805       -79.11551
1.628                  0.9780865       -83.33851
1.632                  0.9706277       -86.89333
1.636                  0.9586756       -89.75983
1.64                   0.9457752       -91.96334
1.644                  0.9351481        -93.5889
1.648                  0.9292586       -94.78315
1.652                  0.9294484       -95.73679
1.656                  0.9357755       -96.64913
1.66                   0.9471282       -97.68786
1.664                  0.9615769       -98.96033
1.668                  0.9768379        -100.505
1.672                  0.9907149       -102.3003
1.676                   1.001433       -104.2814
1.68                    1.007845       -106.3589
1.684                   1.009521       -108.4343
1.688                   1.006742       -110.4125
1.692                   1.000415        -112.213
1.696                  0.9919215        -113.779
1.7                    0.9829055       -115.0862
1.704                  0.9750175       -116.1479
1.708                  0.9696446       -117.0154
1.712                  0.9676762       -117.7695
1.716                  0.9693598       -118.5054
1.72                   0.9742855        -119.313
1.724                  0.9815042         -120.26
1.728                  0.9897378       -121.3812
1.732                  0.9976292       -122.6769
1.736                   1.003972       -124.1171
1.74                    1.007886       -125.6503
1.744                   1.008931       -127.2135
1.748                   1.007136       -128.7417
1.752                   1.002976       -130.1767
1.756                  0.9972803       -131.4753
1.76                   0.9910996       -132.6156
1.764                  0.9855296       -133.6009
1.768                  0.9815297       -134.4599
1.772                  0.9797586        -135.242
1.776                   0.980464       -136.0079
1.78                   0.9834528        -136.818
1.784                  0.9881453       -137.7206
1.788                  0.9936991       -138.7443
1.792                  0.9991716       -139.8942
1.796                   1.003684       -141.1535
1.8                     1.006558       -142.4884
1.804                   1.007416       -143.8547
1.808                   1.006216       -145.2046
1.812                   1.003253       -146.4944
1.816                  0.9990942       -147.6903
1.82                   0.9944882       -148.7737
1.824                  0.9902382       -149.7445
1.828                  0.9870657       -150.6212
1.832                  0.9854895        -151.438
1.836                  0.9857372       -152.2381
1.84                   0.9877138        -153.066
1.844                  0.9910301        -153.959
1.848                  0.9950846       -154.9405
1.852                  0.9991774       -156.0174
1.856                   1.002634       -157.1799
1.86                    1.004913       -158.4041
1.864                   1.005689       -159.6572
1.868                   1.004894       -160.9029
1.872                   1.002717       -162.1066
1.876                  0.9995684       -163.2413
1.88                   0.9960082       -164.2909
1.884                  0.9926512       -165.2538
1.888                  0.9900635       -166.1424
1.892                  0.9886667       -166.9815
1.896                  0.9886668       -167.8035
1.9                    0.9900244       -168.6426
1.904                  0.9924698       -169.5283
1.908                  0.9955577       -170.4807
1.912                  0.9987523       -171.5069
1.916                   1.001521       -172.6013
1.92                    1.003424       -173.7469
1.924                   1.004179       -174.9188
1.928                   1.003702       -176.0887
1.932                   1.002113       -177.2291
1.936                  0.9997106       -178.3177
1.94                   0.9969203       -179.3406
1.944                  0.9942204        179.7051
1.948                  0.9920623        178.8111
1.952                  0.9907944        177.9594
1.956                  0.9906047        177.1254
1.96                   0.9914923        176.2824
1.964                  0.9932736        175.4068
1.968                  0.9956205        174.4816
1.972                  0.9981223        173.4993
1.976                   1.000358        172.4625
1.98                    1.001968        171.3832
1.984                   1.002707        170.2799
1.988                    1.00248        169.1745
1.992                   1.001355         168.089
1.996                  0.9995426        167.0418
2                      0.9973589        166.0449
2.004                  0.9951732        165.1022
2.008                  0.9933444        164.2088
2.012                  0.9921614         163.352
2.016                  0.9917966        162.5137
2.02                   0.9922804        161.6733
2.024                  0.9934999        160.8118
2.028                   0.995225        159.9149
2.032                  0.9971505         158.975
2.036                  0.9989508        157.9922
2.04                    1.000334        156.9738
2.044                   1.001086        155.9331
2.048                   1.001105        154.8862
2.052                   1.000409        153.8503
2.056                  0.9991291        152.8402
2.06                   0.9974858        151.8666
2.064                  0.9957507        150.9342
2.068                  0.9941995        150.0413
2.072                   0.993069        149.1801
2.076                  0.9925196        148.3382
2.08                    0.992611        147.5008
2.084                  0.9932975         146.653
2.088                  0.9944398        145.7827
2.092                  0.9958317        144.8822
2.096                  0.9972365        143.9491
2.1                    0.9984259        142.9865
2.104                  0.9992147        142.0021
2.108                  0.9994877        141.0068
2.112                   0.999213        140.0129
2.116                  0.9984427        139.0321
2.12                   0.9973011        138.0738
2.124                  0.9959633        137.1442
2.128                  0.9946263        136.2446
2.132                  0.9934787        135.3725
2.136                  0.9926729        134.5211
2.14                   0.9923042        133.6812
2.144                  0.9923989        132.8422
2.148                  0.9929141        131.9939
2.152                  0.9937472        131.1283
2.156                  0.9947529        130.2399
2.16                   0.9957669        129.3271
2.164                  0.9966287        128.3916
2.168                  0.9972035        127.4385
2.172                  0.9973989         126.475
2.176                  0.9971759        125.5095
2.18                   0.9965512        124.5508
2.184                   0.995595        123.6064
2.188                  0.9944195        122.6821
2.192                  0.9931658        121.7808
2.196                  0.9919848        120.9026
2.2                    0.9910187        120.0442
2.204                  0.9903821        119.1996
2.208                  0.9901463        118.3608
2.212                  0.9903295        117.5183
2.216                  0.9908917        116.6632
2.22                   0.9917379        115.7873
2.224                  0.9927284        114.8853
2.228                  0.9936952        113.9547
2.232                  0.9944635        112.9968
2.236                  0.9948747        112.0167
2.24                   0.9948097        111.0225
2.244                  0.9942085        110.0244
2.248                  0.9930829        109.0337
2.252                  0.9915213        108.0611
2.256                  0.9896823        107.1149
2.26                   0.9877771        106.1996
2.264                  0.9860425        105.3147
2.268                  0.9847057        104.4543
2.272                  0.9839469        103.6072
2.276                  0.9838649        102.7582
2.28                   0.9844539        101.8902
2.284                  0.9855929        100.9869
2.288                  0.9870569        100.0353
2.292                  0.9885438        99.02845
2.296                   0.989718        97.96626
2.3                    0.9902607        96.85641
2.304                  0.9899237         95.7134
2.308                  0.9885738        94.55666
2.312                   0.986225        93.40786
2.316                  0.9830495        92.28761
2.32                   0.9793644        91.21175
2.324                  0.9755932        90.18797
2.328                  0.9722043        89.21324
2.332                   0.969633        88.27261
2.336                  0.9681992        87.34023
2.34                   0.9680369        86.38256
2.344                    0.96905        85.36339
2.348                   0.970906        84.24991
2.352                  0.9730731        83.01846