! TOUCHSTONE file generated by CST MICROWAVE STUDIO
! Date and time: Tue Jun 14 13:48:55 2022
! Project name: AppElm_antenne_patch_FR4.cst
! Parameters = {L=45; W=58.5; e=0.035; h=1.6; lambda=0.190476; ls=120; w0=2.54; w1=0.847; ws=120; y0=18; y1=24.99}
! Header version: 2018
! Port assignment regex: !\s*Touchstone port\s*([0-9]+)\s*=\s*(CST MWS port|CST DS port)\s*([0-9]+|Zmin|Zmax)\s*\(\"(.*)\"\)(\s*mode\s*([0-9]+))?.*
! Touchstone port assignment:
! Touchstone port 1 = CST MWS port 1 ("")
# GHz S MA R 50
0                      0.9881313              -0
0.004                  0.9888487       -10.00567
0.008                  0.9909002       -19.91785
0.012                  0.9940004       -29.64787
0.016                  0.9977228       -39.11592
0.02                    1.001565       -48.25365
0.024                   1.005022       -57.00534
0.028                   1.007657       -65.32787
0.032                   1.009155       -73.19005
0.036                   1.009366       -80.57165
0.04                    1.008317       -87.46292
0.044                   1.006204       -93.86414
0.048                   1.003364       -99.78585
0.052                   1.000225       -105.2488
0.056                  0.9972404       -110.2838
0.06                   0.9948293       -114.9307
0.064                  0.9933106       -119.2359
0.068                  0.9928594       -123.2496
0.072                  0.9934836       -127.0216
0.076                  0.9950302       -130.5973
0.08                   0.9972146       -134.0143
0.084                  0.9996708       -137.3001
0.088                   1.002012       -140.4715
0.092                   1.003889       -143.5353
0.096                   1.005043       -146.4902
0.1                     1.005335       -149.3296
0.104                   1.004766       -152.0447
0.108                   1.003469       -154.6274
0.112                   1.001683       -157.0733
0.116                   0.999714       -159.3833
0.12                    0.997885       -161.5649
0.124                  0.9964849       -163.6321
0.128                  0.9957227       -165.6041
0.132                   0.995696       -167.5028
0.136                  0.9963792       -169.3505
0.14                   0.9976317       -171.1666
0.144                  0.9992256       -172.9651
0.148                   1.000887       -174.7536
0.152                   1.002341        -176.533
0.156                   1.003358       -178.2978
0.16                    1.003787        179.9619
0.164                    1.00358        178.2582
0.168                   1.002791        176.6031
0.172                   1.001569        175.0062
0.176                    1.00013         173.473
0.18                   0.9987196        172.0035
0.184                  0.9975728        170.5921
0.188                  0.9968745        169.2284
0.192                  0.9967294        167.8987
0.196                  0.9971468        166.5879
0.2                    0.9980405        165.2825
0.204                  0.9992464        163.9719
0.208                   1.000553        162.6507
0.212                   1.001736        161.3187
0.216                     1.0026        159.9806
0.22                    1.003006        158.6453
0.224                   1.002896        157.3237
0.228                     1.0023        156.0271
0.232                   1.001327        154.7651
0.236                   1.000149        153.5438
0.24                   0.9989704        152.3649
0.244                  0.9979905        151.2253
0.248                  0.9973735        150.1174
0.252                   0.997218        149.0305
0.256                  0.9975424        147.9527
0.26                   0.9982824        146.8726
0.264                  0.9993038        145.7815
0.268                   1.000427        144.6746
0.272                   1.001456        143.5516
0.276                   1.002218         142.417
0.28                    1.002586        141.2784
0.284                   1.002503        140.1459
0.288                   1.001987        139.0299
0.292                   1.001134        137.9392
0.296                   1.000091        136.8799
0.3                    0.9990415        135.8541
0.304                   0.998165        134.8595
0.308                  0.9976111        133.8896
0.312                   0.997472        132.9352
0.316                  0.9977676        131.9857
0.32                    0.998442        131.0308
0.324                  0.9993745        130.0627
0.328                   1.000401        129.0772
0.332                   1.001343         128.074
0.336                    1.00204        127.0571
0.34                    1.002372         126.034
0.344                   1.002285         125.014
0.348                   1.001798        124.0069
0.352                   1.000996        123.0212
0.356                   1.000021        122.0626
0.36                   0.9990411        121.1333
0.364                  0.9982275         120.231
0.368                  0.9977208          119.35
0.372                  0.9976077        118.4814
0.376                   0.997906        117.6153
0.38                   0.9985617         116.742
0.384                  0.9994592        115.8543
0.388                   1.000441        114.9481
0.392                   1.001336        114.0235
0.396                   1.001989        113.0845
0.4                     1.002289        112.1382
0.404                   1.002185        111.1939
0.408                   1.001695         110.261
0.412                   1.000906        109.3477
0.416                  0.9999558        108.4597
0.42                   0.9990102        107.5988
0.424                  0.9982342        106.7629
0.428                  0.9977639         105.946
0.432                  0.9976813        105.1396
0.436                   0.998001        104.3339
0.44                   0.9986663        103.5195
0.444                  0.9995604        102.6894
0.448                   1.000527          101.84
0.452                   1.001397        100.9714
0.456                   1.002018         100.088
0.46                    1.002283        99.19694
0.464                   1.002145        98.30751
0.468                   1.001627        97.42916
0.472                    1.00082        96.57001
0.476                   0.999862        95.73544
0.48                   0.9989217        94.92707
0.484                  0.9981633         94.1425
0.488                  0.9977201        93.37563
0.492                  0.9976702         92.6177
0.496                  0.9980231        91.85881
0.5                    0.9987168        91.08976
0.504                  0.9996297        90.30363
0.508                   1.000601        89.49699
0.512                   1.001461        88.67044
0.516                   1.002057        87.82859
0.52                    1.002284        86.97907
0.524                   1.002102        86.13134
0.528                   1.001539          85.295
0.532                   1.000692        84.47817
0.536                  0.9997083        83.68603
0.54                    0.998759         82.9199
0.544                  0.9980112        82.17698
0.548                  0.9975971         81.4507
0.552                  0.9975913        80.73193
0.556                   0.997996        80.01048
0.56                   0.9987413        79.27706
0.564                  0.9996969        78.52481
0.568                   1.000695        77.75062
0.572                   1.001559        76.95557
0.576                   1.002138        76.14476
0.58                    1.002328        75.32634
0.584                   1.002093        74.51022
0.588                   1.001471        73.70627
0.592                    1.00057        72.92266
0.596                  0.9995444        72.16443
0.6                     0.998575        71.43252
0.604                  0.9978326        70.72356
0.608                  0.9974497        70.03035
0.612                  0.9974962        69.34317
0.616                  0.9979664        68.65143
0.62                   0.9987792        67.94561
0.624                  0.9997923        67.21893
0.628                   1.000828        66.46862
0.632                   1.001703        65.69633
0.636                   1.002262        64.90782
0.64                    1.002405        64.11199
0.644                   1.002101         63.3193
0.648                   1.001402        62.54001
0.652                   1.000427        61.78243
0.656                   0.999343        61.05139
0.66                   0.9983417        60.34736
0.664                     0.9976        59.66627
0.668                  0.9972514        59.00011
0.672                  0.9973605         58.3384
0.676                   0.997911        57.66996
0.68                   0.9988083        56.98497
0.684                  0.9998956        56.27674
0.688                   1.000982         55.5429
0.692                   1.001874        54.78576
0.696                   1.002414        54.01194
0.7                     1.002502        53.23121
0.704                    1.00212        52.45475
0.708                   1.001329        51.69333
0.712                   1.000265         50.9554
0.716                  0.9991119        50.24556
0.72                   0.9980728         49.5637
0.724                   0.997333        48.90487
0.728                  0.9970265        48.26012
0.732                  0.9972116        47.61798
0.736                  0.9978596         46.9666
0.74                   0.9988589        46.29581
0.744                   1.000035          45.599
0.748                   1.001181        44.87428
0.752                   1.002092        44.12484
0.756                   1.002606        43.35829
0.76                    1.002627        42.58543
0.764                   1.002146        41.81836
0.768                   1.001241        41.06841
0.772                   1.000066        40.34422
0.776                  0.9988249        39.65012
0.78                   0.9977358        38.98528
0.784                   0.996993        38.34375
0.788                  0.9967316        37.71537
0.792                  0.9970024        37.08759
0.796                  0.9977616        36.44769
0.8                    0.9988778         35.7851
0.804                   1.000155        35.09333
0.808                   1.001368         34.3711
0.812                     1.0023        33.62255
0.816                   1.002782        32.85651
0.82                    1.002722          32.085
0.824                   1.002125        31.32115
0.828                   1.001087        30.57699
0.832                  0.9997856        29.86132
0.836                  0.9984456        29.17814
0.84                   0.9973037        28.52577
0.844                  0.9965647        27.89701
0.848                  0.9963643        27.28033
0.852                  0.9967439        26.66184
0.856                  0.9976419        26.02784
0.86                   0.9989031         25.3673
0.864                   1.000307        24.67386
0.868                   1.001605        23.94698
0.872                   1.002566        23.19196
0.876                   1.003015        22.41905
0.88                    1.002867         21.6417
0.884                   1.002137        20.87425
0.888                   1.000947        20.12952
0.892                  0.9994995        19.41654
0.896                  0.9980458        18.73891
0.9                    0.9968433        18.09394
0.904                  0.9961091        17.47299
0.908                  0.9959795        16.86289
0.912                  0.9964848        16.24822
0.916                  0.9975422        15.61414
0.92                   0.9989688         14.9491
0.924                   1.000515        14.24694
0.928                   1.001906        13.50795
0.932                   1.002893        12.73884
0.936                   1.003296        11.95152
0.94                    1.003034        11.16109
0.944                   1.002142        10.38334
0.948                   1.000766        9.632015
0.952                  0.9991394        8.916416
0.956                  0.9975461        8.239644
0.96                   0.9962678        7.597841
0.964                  0.9955357        6.980653
0.968                  0.9954876        6.372948
0.972                  0.9961406        5.757484
0.976                  0.9973866        5.118065
0.98                   0.9990106         4.44251
0.984                   1.000728        3.724859
0.988                   1.002234        2.966416
0.992                   1.003259        2.175483
0.996                   1.003613        1.365925
1                       1.003224       0.5548283
1.004                   1.002145       -0.240349
1.008                   1.000555       -1.004743
1.012                  0.9987235       -1.728712
1.016                  0.9969698       -2.409697
1.02                    0.995606       -3.052947
1.024                  0.9948807        -3.67084
1.028                   0.994933       -4.280833
1.032                  0.9957649       -4.902351
1.036                  0.9972385       -5.553221
1.04                   0.9990999       -6.246386
1.044                   1.001023        -6.98757
1.048                   1.002666       -7.774293
1.052                   1.003734       -8.596335
1.056                   1.004028       -9.437505
1.06                     1.00348       -10.27833
1.064                   1.002169       -11.09929
1.068                    1.00031       -11.88414
1.072                  0.9982158       -12.62267
1.076                  0.9962513       -13.31298
1.08                   0.9947654       -13.96188
1.084                  0.9940292       -14.58419
1.088                  0.9941851       -15.20017
1.092                  0.9952184       -15.83199
1.096                  0.9969563        -16.4994
1.1                    0.9990982       -17.21647
1.104                   1.001268       -17.98871
1.108                   1.003079       -18.81227
1.112                   1.004203       -19.67465
1.116                   1.004427       -20.55692
1.12                    1.003691       -21.43665
1.124                   1.002101       -22.29179
1.128                  0.9999142       -23.10423
1.132                     0.9975       -23.86314
1.136                  0.9952774       -24.56714
1.14                   0.9936424       -25.22497
1.144                  0.9928962       -25.85444
1.148                  0.9931878       -26.47934
1.152                  0.9944828       -27.12524
1.156                  0.9965668       -27.81467
1.16                   0.9990808       -28.56301
1.164                   1.001585       -29.37569
1.168                   1.003635       -30.24729
1.172                    1.00486       -31.16262
1.176                   1.005024       -32.09923
1.18                    1.004073       -33.03103
1.184                   1.002144       -33.93261
1.188                  0.9995468       -34.78337
1.192                  0.9967192       -35.57131
1.196                  0.9941511       -36.29554
1.2                    0.9923014       -36.96704
1.204                  0.9915139       -37.60726
1.208                  0.9919497       -38.24454
1.212                  0.9935547       -38.90895
1.216                  0.9960627       -39.62665
1.22                   0.9990422       -40.41505
1.224                   1.001971       -41.27969
1.228                   1.004328       -42.21335
1.232                    1.00568       -43.19746
1.236                   1.005763        -44.2051
1.24                    1.004521       -45.20537
1.244                   1.002128       -46.16829
1.248                  0.9989611       -47.06965
1.252                  0.9955469       -47.89555
1.256                  0.9924725       -48.64533
1.26                    0.990286       -49.33262
1.264                  0.9893949       -49.98366
1.268                   0.989986       -50.63295
1.272                  0.9919842       -51.31691
1.276                  0.9950601       -52.06706
1.28                   0.9986855       -52.90404
1.284                   1.002225       -53.83401
1.288                   1.005048       -54.84775
1.292                   1.006633       -55.92238
1.296                   1.006661       -57.02514
1.3                     1.005069       -58.11844
1.304                    1.00207       -59.16573
1.308                  0.9981278        -60.1374
1.312                  0.9938894       -61.01616
1.316                  0.9900804       -61.80098
1.32                   0.9873816       -62.50865
1.324                  0.9863018       -63.17188
1.328                  0.9870766         -63.834
1.332                  0.9896131       -64.54099
1.336                  0.9934982       -65.33264
1.34                   0.9980678       -66.23503
1.344                   1.002521       -67.25594
1.348                    1.00606       -68.38385
1.352                   1.008021       -69.59016
1.356                   1.007989        -70.8338
1.36                    1.005873       -72.06733
1.364                   1.001928       -73.24398
1.368                  0.9967329       -74.32504
1.372                   0.991111       -75.28677
1.376                  0.9860036       -76.12605
1.38                   0.9823109       -76.86308
1.384                  0.9807235       -77.53995
1.388                  0.9815815       -78.21387
1.392                  0.9847912       -78.94678
1.396                  0.9898289       -79.79308
1.4                    0.9958248       -80.78923
1.404                   1.001714       -81.94742
1.408                   1.006416       -83.25406
1.412                   1.009017       -84.67272
1.416                   1.008917       -86.14983
1.42                    1.005934       -87.62229
1.424                   1.000356       -89.02603
1.428                  0.9929215       -90.30542
1.432                  0.9847338       -91.42312
1.436                  0.9771084       -92.36903
1.44                   0.9713577       -93.16652
1.444                  0.9685464        -93.8726
1.448                  0.9692659        -94.5704
1.452                  0.9734852        -95.3539
1.456                   0.980523       -96.30906
1.46                   0.9891518       -97.49694
1.464                  0.9978056        -98.9432
1.468                   1.004839       -100.6357
1.472                   1.008789       -102.5283
1.476                   1.008595       -104.5486
1.48                    1.003771       -106.6069
1.484                  0.9945087       -108.6068
1.488                  0.9817063       -110.4564
1.492                  0.9669147       -112.0829
1.496                  0.9521732       -113.4497
1.5                    0.9397248       -114.5737
1.504                  0.9316159       -115.5374
1.508                   0.929244       -116.4867
1.512                  0.9329657       -117.6095
1.516                  0.9418994       -119.0991
1.52                   0.9539932       -121.1169
1.524                  0.9663196       -123.7686
1.528                  0.9754861       -127.0994
1.532                  0.9780398        -131.105
1.536                  0.9707974       -135.7476
1.54                   0.9510766       -140.9719
1.544                  0.9168441        -146.718
1.548                  0.8667947       -152.9297
1.552                  0.8003836       -159.5621
1.556                  0.7178221       -166.5897
1.56                   0.6200473       -174.0207
1.564                  0.5086751        178.0658
1.568                  0.3859582        169.4061
1.572                  0.2548531        159.0655
1.576                   0.120218        141.6454
1.58                   0.0468704         27.9106
1.584                  0.1712704       -21.68836
1.588                  0.3054504       -34.86109
1.592                  0.4337334       -44.36206
1.596                  0.5523877       -52.69706
1.6                     0.658753       -60.42652
1.604                  0.7508165       -67.71968
1.608                  0.8272139       -74.62159
1.612                  0.8872778       -81.12506
1.616                    0.93108       -87.19578
1.62                   0.9594533       -92.78348
1.624                   0.973984       -97.82927
1.628                  0.9769647        -102.273
1.632                  0.9712935       -106.0634
1.636                  0.9602977       -109.1724
1.64                   0.9474679       -111.6117
1.644                  0.9360939       -113.4484
1.648                  0.9288433       -114.8111
1.652                  0.9273742       -115.8787
1.656                  0.9321081       -116.8497
1.66                   0.9422599       -117.9027
1.664                  0.9561207       -119.1632
1.668                  0.9714916       -120.6898
1.672                  0.9861308        -122.478
1.676                  0.9981182       -124.4753
1.68                    1.006096        -126.599
1.684                   1.009392        -128.753
1.688                   1.008046       -130.8403
1.692                   1.002753       -132.7746
1.696                  0.9947379       -134.4894
1.7                    0.9855742       -135.9473
1.704                  0.9769423        -137.147
1.708                  0.9703652       -138.1254
1.712                  0.9669563       -138.9536
1.716                  0.9672322       -139.7239
1.72                    0.971042       -140.5314
1.724                  0.9776313       -141.4555
1.728                  0.9858189       -142.5459
1.732                  0.9942368       -143.8172
1.736                   1.001573       -145.2515
1.74                    1.006772        -146.805
1.744                   1.009179       -148.4177
1.748                   1.008604       -150.0235
1.752                   1.005324        -151.559
1.756                   1.000029       -152.9719
1.76                   0.9937002       -154.2286
1.764                  0.9874603       -155.3193
1.768                  0.9823853       -156.2607
1.772                  0.9793268       -157.0936
1.776                  0.9787665       -157.8762
1.78                   0.9807386       -158.6725
1.784                  0.9848417       -159.5405
1.788                  0.9903287       -160.5212
1.792                  0.9962568       -161.6331
1.796                   1.001658       -162.8704
1.8                     1.005698       -164.2072
1.804                   1.007798       -165.6026
1.808                   1.007714        -167.008
1.812                   1.005554       -168.3745
1.816                   1.001752       -169.6598
1.82                   0.9969974       -170.8345
1.824                  0.9921152       -171.8862
1.828                  0.9879368       -172.8226
1.832                  0.9851575       -173.6702
1.836                  0.9842196       -174.4697
1.84                   0.9852393       -175.2689
1.844                  0.9879945       -176.1134
1.848                  0.9919762       -177.0384
1.852                  0.9964886       -178.0629
1.856                   1.000776       -179.1879
1.86                     1.00415        179.6028
1.864                   1.006097        178.3386
1.868                   1.006351        177.0566
1.872                   1.004925        175.7961
1.876                   1.002103        174.5927
1.88                   0.9983874        173.4728
1.884                  0.9944174        172.4497
1.888                  0.9908635        171.5211
1.892                  0.9883163        170.6693
1.896                  0.9871851        169.8641
1.9                    0.9876312        169.0685
1.904                  0.9895441        168.2448
1.908                  0.9925684        167.3623
1.912                  0.9961733        166.4018
1.916                  0.9997494        165.3585
1.92                    1.002713         164.242
1.924                     1.0046        163.0735
1.928                   1.005133        161.8824
1.932                   1.004261         160.701
1.936                   1.002161        159.5598
1.94                   0.9992044         158.483
1.944                   0.995895        157.4846
1.948                  0.9927886        156.5662
1.952                  0.9903983        155.7164
1.956                  0.9891097        154.9128
1.96                   0.9891162        154.1257
1.964                   0.990389        153.3238
1.968                  0.9926871        152.4794
1.972                  0.9956042        151.5735
1.976                  0.9986434        150.5984
1.98                    1.001302        149.5586
1.984                   1.003153        148.4691
1.988                   1.003912        147.3529
1.992                   1.003476        146.2369
1.996                   1.001936        145.1479
2                       0.999561        144.1083
2.004                  0.9967482         143.133
2.008                  0.9939621        142.2265
2.012                  0.9916573        141.3827
2.016                  0.9902024        140.5853
2.02                     0.98982        139.8106
2.024                  0.9905501        139.0321
2.028                  0.9922473        138.2247
2.032                   0.994609        137.3691
2.036                  0.9972302        136.4551
2.04                   0.9996742        135.4827
2.044                   1.001543        134.4616
2.048                    1.00254        133.4094
2.052                   1.002514        132.3482
2.056                   1.001479        131.3018
2.06                   0.9996103        130.2914
2.064                  0.9972122        129.3328
2.068                  0.9946726        128.4338
2.072                  0.9923979        127.5928
2.076                  0.9907476         126.799
2.08                   0.9899762        126.0344
2.084                  0.9901909        125.2762
2.088                  0.9913356        124.5013
2.092                  0.9932036        123.6901
2.096                  0.9954736        122.8297
2.1                    0.9977645        121.9154
2.104                  0.9996993        120.9518
2.108                   1.000962        119.9512
2.112                   1.001349        118.9318
2.116                   1.000793        117.9145
2.12                    0.999378        116.9199
2.124                   0.997319        115.9654
2.128                  0.9949332        115.0622
2.132                   0.992588        114.2137
2.136                  0.9906438        113.4148
2.14                   0.9893967        112.6524
2.144                  0.9890297        111.9076
2.148                  0.9895837        111.1589
2.152                  0.9909507        110.3855
2.156                  0.9928924        109.5708
2.16                   0.9950801        108.7053
2.164                  0.9971471        107.7876
2.168                  0.9987469        106.8245
2.172                  0.9996061        105.8299
2.176                  0.9995653        104.8223
2.18                   0.9986032        103.8225
2.184                  0.9968396          102.85
2.188                  0.9945197        101.9205
2.192                  0.9919776        101.0434
2.196                   0.989587        100.2198
2.2                     0.987703        99.44248
2.204                  0.9866056        98.69624
2.208                  0.9864527        97.96047
2.212                  0.9872527        97.21232
2.216                  0.9888601        96.43037
2.22                   0.9909976        95.59826
2.224                  0.9932981        94.70714
2.228                  0.9953623        93.75716
2.232                  0.9968195        92.75723
2.236                  0.9973848        91.72373
2.24                   0.9969033        90.67801
2.244                  0.9953759        89.64351
2.248                  0.9929643        88.64216
2.252                  0.9899715        87.69128
2.256                  0.9868013         86.8004
2.26                   0.9839002        85.96941
2.264                  0.9816867        85.18774
2.268                  0.9804835        84.43534
2.272                  0.9804579         83.6856
2.276                  0.9815879        82.90935
2.28                   0.9836585        82.07979
2.284                  0.9862886        81.17696
2.288                   0.988989        80.19105
2.292                  0.9912358        79.12397
2.296                  0.9925521        77.98908
2.3                    0.9925818        76.80931
2.304                  0.9911487        75.61396
2.308                  0.9882918        74.43462
2.312                  0.9842703        73.30059
2.316                  0.9795379        72.23415
2.32                   0.9746847        71.24623
2.324                  0.9703511        70.33317
2.328                  0.9671248        69.47559
2.332                  0.9654347         68.6398
2.336                  0.9654638         67.7824
2.34                   0.9670975        66.85715
2.344                   0.969925        65.82275
2.348                    0.97329         64.6498
2.352                  0.9763859        63.32557