! TOUCHSTONE file generated by CST MICROWAVE STUDIO
! Date and time: Tue Jun 14 13:48:57 2022
! Project name: AppElm_antenne_patch_FR4.cst
! Parameters = {L=45; W=58.5; e=0.035; h=1.6; lambda=0.190476; ls=120; w0=2.54; w1=0.847; ws=120; y0=18; y1=27.37}
! Header version: 2018
! Port assignment regex: !\s*Touchstone port\s*([0-9]+)\s*=\s*(CST MWS port|CST DS port)\s*([0-9]+|Zmin|Zmax)\s*\(\"(.*)\"\)(\s*mode\s*([0-9]+))?.*
! Touchstone port assignment:
! Touchstone port 1 = CST MWS port 1 ("")
# GHz S MA R 50
0                      0.9893363              -0
0.004                  0.9900122       -10.06093
0.008                  0.9919415       -20.02748
0.012                  0.9948452       -29.81012
0.016                  0.9983081       -39.32818
0.02                    1.001844       -48.51257
0.024                   1.004969       -57.30692
0.028                   1.007271       -65.66774
0.032                   1.008466       -73.56372
0.036                   1.008432       -80.97504
0.04                    1.007225       -87.89281
0.044                   1.005066       -94.31876
0.048                   1.002303       -100.2654
0.052                  0.9993632       -105.7557
0.056                  0.9966856        -110.823
0.06                   0.9946557       -115.5091
0.064                  0.9935468       -119.8618
0.068                  0.9934805       -123.9317
0.072                   0.994412       -127.7675
0.076                  0.9961426       -131.4125
0.08                   0.9983595       -134.9011
0.084                   1.000689       -138.2575
0.088                    1.00276       -141.4951
0.092                   1.004259       -144.6179
0.096                   1.004979       -147.6228
0.1                     1.004845       -150.5027
0.104                    1.00392       -153.2494
0.108                   1.002391        -155.857
0.112                   1.000534       -158.3239
0.116                  0.9986695       -160.6549
0.12                   0.9971063       -162.8614
0.124                  0.9960943       -164.9608
0.128                  0.9957828       -166.9745
0.132                  0.9961984       -168.9253
0.136                  0.9972445       -170.8344
0.14                   0.9987221       -172.7185
0.144                   1.000367       -174.5881
0.148                   1.001896       -176.4465
0.152                   1.003057       -178.2906
0.156                   1.003666        179.8883
0.16                    1.003638        178.1019
0.164                   1.002997        176.3628
0.168                   1.001869        174.6814
0.172                   1.000459        173.0648
0.176                  0.9990135        171.5145
0.18                   0.9977822        170.0262
0.184                  0.9969712        168.5901
0.188                    0.99671        167.1927
0.192                   0.997031        165.8185
0.196                  0.9978648        164.4529
0.2                    0.9990554        163.0842
0.204                   1.000389        161.7055
0.208                   1.001632        160.3156
0.212                   1.002572        158.9188
0.216                   1.003052        157.5237
0.22                       1.003        156.1414
0.224                   1.002431         154.784
0.228                   1.001452        153.4619
0.232                   1.000238         152.182
0.236                  0.9990017        150.9466
0.24                   0.9979575        149.7531
0.244                  0.9972841        148.5938
0.248                  0.9970931        147.4576
0.252                   0.997411        146.3316
0.256                  0.9981753        145.2038
0.26                   0.9992461        144.0646
0.264                   1.000433        142.9085
0.268                   1.001527        141.7353
0.272                   1.002341        140.5492
0.276                   1.002734        139.3586
0.28                    1.002645        138.1743
0.284                   1.002092        137.0073
0.288                   1.001175        135.8675
0.292                   1.000056        134.7613
0.296                  0.9989321         133.691
0.3                    0.9979979        132.6541
0.304                  0.9974159        131.6437
0.308                  0.9972854        130.6494
0.312                  0.9976258        129.6598
0.316                  0.9983741        128.6639
0.32                   0.9993964        127.6531
0.324                   1.000512        126.6228
0.328                   1.001526        125.5733
0.332                   1.002262        124.5089
0.336                   1.002594        123.4381
0.34                    1.002467        122.3712
0.344                   1.001905        121.3188
0.348                   1.001006        120.2902
0.352                  0.9999301        119.2915
0.356                  0.9988641        118.3248
0.36                    0.997995        117.3872
0.364                  0.9974748        116.4721
0.368                  0.9973937        115.5696
0.372                  0.9977651        114.6686
0.376                  0.9985224        113.7586
0.38                   0.9995315        112.8317
0.384                   1.000615        111.8839
0.388                   1.001585        110.9158
0.392                    1.00227        109.9321
0.396                   1.002554        108.9411
0.4                     1.002387        107.9532
0.404                   1.001799        106.9789
0.408                   1.000892        106.0271
0.412                  0.9998256        105.1035
0.416                  0.9987851        104.2099
0.42                   0.9979533        103.3434
0.424                  0.9974764        102.4969
0.428                  0.9974382        101.6607
0.432                  0.9978454        100.8236
0.436                  0.9986266        99.97567
0.44                   0.9996444        99.10925
0.444                    1.00072        98.22072
0.448                   1.001666        97.31097
0.452                   1.002316        96.38518
0.456                   1.002557         95.4519
0.46                    1.002347        94.52152
0.464                    1.00172        93.60456
0.468                   1.000786         92.7098
0.472                  0.9997064        91.84278
0.476                  0.9986695        91.00482
0.48                   0.9978576         90.1927
0.484                  0.9974132        89.39908
0.488                  0.9974157        88.61393
0.492                   0.997865        87.82616
0.496                  0.9986829        87.02563
0.5                    0.9997259        86.20503
0.504                   1.000811        85.36106
0.508                   1.001748          84.495
0.512                   1.002373        83.61245
0.516                   1.002574        82.72234
0.52                    1.002316        81.83535
0.524                   1.001642        80.96209
0.528                   1.000666        80.11135
0.532                  0.9995577        79.28845
0.536                  0.9985107        78.49439
0.54                   0.9977087        77.72546
0.544                  0.9972932        76.97395
0.548                  0.9973391        76.22937
0.552                  0.9978396        75.48036
0.556                  0.9987077        74.71676
0.56                   0.9997917        73.93131
0.564                   1.000902        73.12104
0.568                   1.001843         72.2877
0.572                   1.002449        71.43737
0.576                   1.002613        70.57948
0.58                    1.002304        69.72513
0.584                   1.001572        68.88521
0.588                   1.000543        68.06853
0.592                  0.9993943        67.28025
0.596                   0.998327        66.52101
0.6                    0.9975289         65.7866
0.604                  0.9971418        65.06869
0.608                  0.9972362        64.35629
0.612                  0.9977977        63.63762
0.616                  0.9987295        62.90228
0.62                   0.9998689        62.14315
0.624                   1.001017        61.35751
0.628                   1.001971        60.54761
0.632                   1.002564         59.7202
0.636                   1.002689        58.88528
0.64                    1.002321        58.05452
0.644                   1.001521        57.23915
0.648                   1.000426        56.44813
0.652                   0.999224        55.68649
0.656                  0.9981259        54.95442
0.66                   0.9973257        54.24713
0.664                  0.9969661         53.5556
0.668                  0.9971136        52.86812
0.672                  0.9977452        52.17239
0.676                  0.9987523        51.45775
0.68                   0.9999594        50.71706
0.684                   1.001155        49.94795
0.688                   1.002129        49.15324
0.692                   1.002709        48.34037
0.696                   1.002791        47.52013
0.7                     1.002355        46.70484
0.704                   1.001474         45.9062
0.708                   1.000297        45.13338
0.712                  0.9990272        44.39126
0.716                  0.9978871        43.67961
0.72                    0.997078        42.99292
0.724                  0.9967451        42.32133
0.728                  0.9969507        41.65231
0.732                   0.997662        40.97288
0.736                  0.9987571        40.27201
0.74                    1.000045        39.54253
0.744                   1.001299        38.78242
0.748                     1.0023        37.99515
0.752                   1.002868        37.18899
0.756                   1.002901        36.37564
0.76                    1.002387        35.56821
0.764                    1.00141          34.779
0.768                   1.000135        34.01744
0.772                  0.9987833         33.2883
0.776                  0.9975898        32.59083
0.78                   0.9967664        31.91874
0.784                  0.9964611        31.26117
0.788                  0.9967323        30.60459
0.792                  0.9975361        29.93522
0.796                  0.9987346        29.24154
0.8                     1.000119        28.51632
0.804                   1.001446        27.75791
0.808                   1.002482        26.97051
0.812                   1.003042        26.16337
0.816                   1.003022        25.34923
0.82                    1.002419        24.54216
0.824                   1.001332         23.7552
0.828                  0.9999434         22.9981
0.832                  0.9984931        22.27556
0.836                  0.9972347        21.58628
0.84                   0.9963912        20.92303
0.844                  0.9961156         20.2738
0.848                  0.9964617        19.62388
0.852                  0.9973737        18.95851
0.856                   0.998695        18.26556
0.86                    1.000196        17.53768
0.864                   1.001613        16.77363
0.868                   1.002696        15.97842
0.872                   1.003252        15.16243
0.876                   1.003176        14.33962
0.88                    1.002473        13.52522
0.884                   1.001258        12.73316
0.888                   0.999735        11.97364
0.892                  0.9981672        11.25131
0.896                  0.9968282        10.56427
0.9                    0.9959566        9.904227
0.904                  0.9957111        9.257825
0.908                  0.9961418        8.608955
0.912                  0.9971792        7.941655
0.916                  0.9986457        7.243026
0.92                    1.000287        6.505537
0.924                   1.001815         5.72834
0.928                    1.00296        4.917375
0.932                   1.003517        4.084315
0.936                   1.003379        3.244589
0.94                    1.002562        2.414805
0.944                   1.001197        1.609975
0.948                  0.9995135       0.8409263
0.952                  0.9978013        0.112317
0.956                  0.9963599      -0.5783823
0.96                   0.9954463       -1.240669
0.964                  0.9952283       -1.889493
0.968                  0.9957525       -2.542652
0.972                  0.9969346       -3.217577
0.976                  0.9985728       -3.928156
0.98                    1.000383       -4.682234
0.984                   1.002048       -5.480259
0.988                   1.003274       -6.315255
0.992                    1.00384       -7.174045
0.996                   1.003637       -8.039473
1                       1.002687       -8.893242
1.004                   1.001143       -9.718958
1.008                  0.9992637       -10.50495
1.012                  0.9973708       -11.24643
1.016                  0.9957955       -11.94659
1.02                    0.994819       -12.61629
1.024                  0.9946216       -13.27238
1.028                  0.9952485        -13.9347
1.032                  0.9965986       -14.62255
1.036                  0.9984424       -15.35111
1.04                     1.00046       -16.12871
1.044                     1.0023       -16.95547
1.048                   1.003635       -17.82329
1.052                   1.004224       -18.71714
1.056                   1.003951       -19.61782
1.06                    1.002847       -20.50501
1.064                   1.001088       -21.36042
1.068                  0.9989661       -22.17128
1.072                  0.9968432       -22.93243
1.076                  0.9950901       -23.64777
1.08                   0.9940201       -24.32964
1.084                  0.9938319       -24.99725
1.088                  0.9945714       -25.67295
1.092                  0.9961206       -26.37845
1.096                  0.9982165       -27.13065
1.1                     1.000497        -27.9388
1.104                   1.002564        -28.8026
1.108                   1.004051       -29.71271
1.112                   1.004688        -30.6521
1.116                   1.004346       -31.59896
1.12                    1.003064       -32.53026
1.124                   1.001042       -33.42545
1.128                  0.9986142       -34.26997
1.132                  0.9961921        -35.0581
1.136                  0.9941977       -35.79424
1.14                    0.992988       -36.49264
1.144                  0.9927891       -37.17519
1.148                  0.9936524       -37.86756
1.152                   0.995442       -38.59463
1.156                  0.9978556       -39.37577
1.16                    1.000478       -40.22143
1.164                   1.002852       -41.13135
1.168                   1.004556       -42.09468
1.172                   1.005281       -43.09192
1.176                   1.004876       -44.09803
1.18                    1.003384       -45.08649
1.184                   1.001033       -46.03352
1.188                  0.9982068       -46.92218
1.192                  0.9953817        -47.7455
1.196                  0.9930482        -48.5083
1.2                    0.9916239       -49.22687
1.204                  0.9913772       -49.92663
1.208                  0.9923732       -50.63758
1.212                   0.994458       -51.38894
1.216                  0.9972826       -52.20363
1.22                    1.000363       -53.09416
1.224                   1.003162        -54.0605
1.228                   1.005185       -55.09029
1.232                    1.00606       -56.16091
1.236                   1.005604       -57.24317
1.24                    1.003856       -58.30584
1.244                   1.001075       -59.32062
1.248                  0.9977072       -60.26687
1.252                  0.9943136        -61.1355
1.256                  0.9914799       -61.93131
1.26                   0.9897132         -62.673
1.264                  0.9893472       -63.39049
1.268                  0.9904762       -64.11978
1.272                  0.9929312       -64.89632
1.276                  0.9963045       -65.74837
1.28                     1.00002       -66.69185
1.284                   1.003432       -67.72767
1.288                   1.005935       -68.84179
1.292                   1.007066       -70.00769
1.296                   1.006582       -71.19055
1.3                     1.004506       -72.35259
1.304                   1.001131       -73.45878
1.308                  0.9969823        -74.4827
1.312                  0.9927381       -75.41142
1.316                   0.989123       -76.24888
1.32                   0.9867808        -77.0164
1.324                  0.9861543       -77.75009
1.328                  0.9873959       -78.49463
1.332                   0.990329       -79.29508
1.336                  0.9944719       -80.18825
1.34                   0.9991194       -81.19599
1.344                   1.003463       -82.32147
1.348                   1.006728       -83.54904
1.352                   1.008302       -84.84708
1.356                   1.007836       -86.17285
1.36                     1.00531       -87.47872
1.364                   1.001047       -88.71932
1.368                  0.9956755       -89.85844
1.372                  0.9900469       -90.87595
1.376                  0.9851017       -91.77278
1.38                   0.9817106       -92.57301
1.384                  0.9805113       -93.32151
1.388                  0.9817767       -94.07674
1.392                  0.9853466       -94.89994
1.396                  0.9906433       -95.84316
1.4                    0.9967655       -96.93955
1.404                   1.002642       -98.19778
1.408                   1.007211       -99.60132
1.412                   1.009593       -101.1117
1.416                   1.009231       -102.6742
1.42                    1.005993       -104.2259
1.424                   1.000204       -105.7034
1.428                  0.9926327       -107.0527
1.432                  0.9843968       -108.2385
1.436                  0.9768092       -109.2528
1.44                   0.9711645       -110.1208
1.444                  0.9684994       -110.9009
1.448                  0.9693733       -111.6766
1.452                  0.9737272       -112.5411
1.456                  0.9808617       -113.5792
1.46                   0.9895442       -114.8506
1.464                  0.9982139       -116.3796
1.468                   1.005238       -118.1537
1.472                   1.009162       -120.1267
1.476                   1.008935       -122.2265
1.48                    1.004066       -124.3642
1.484                  0.9947352       -126.4436
1.488                  0.9818181       -128.3727
1.492                  0.9668408       -130.0778
1.496                  0.9518232       -131.5198
1.5                    0.9390052       -132.7119
1.504                  0.9304595       -133.7324
1.508                  0.9276431       -134.7233
1.512                   0.931003       -135.8705
1.516                   0.939762       -137.3686
1.52                   0.9519674       -139.3825
1.524                  0.9647685       -142.0225
1.528                  0.9748184       -145.3387
1.532                  0.9786768       -149.3304
1.536                  0.9731432       -153.9623
1.54                   0.9554923       -159.1806
1.544                  0.9236249       -164.9259
1.548                  0.8761528       -171.1423
1.552                  0.8124337       -177.7846
1.556                  0.7325713        175.1741
1.56                   0.6373897        167.7281
1.564                  0.5283899        159.8072
1.568                  0.4077102        151.1783
1.572                  0.2781744        141.0568
1.576                  0.1441372        125.5143
1.58                  0.04107463         41.6476
1.584                  0.1480804       -36.91621
1.588                  0.2821868       -52.13289
1.592                  0.4116542       -62.19697
1.596                   0.532203       -70.81415
1.6                    0.6410114       -78.73889
1.604                  0.7359334        -86.1965
1.608                  0.8154588        -93.2543
1.612                  0.8787552       -99.91614
1.616                  0.9257136       -106.1539
1.62                   0.9569766       -111.9209
1.624                  0.9739408       -117.1595
1.628                  0.9787244        -121.808
1.632                  0.9740867       -125.8104
1.636                   0.963277       -129.1289
1.64                   0.9497993       -131.7612
1.644                  0.9370716       -133.7571
1.648                   0.928011       -135.2299
1.652                  0.9246135       -136.3499
1.656                  0.9276619       -137.3185
1.66                   0.9366712       -138.3286
1.664                  0.9501108        -139.527
1.668                  0.9658152       -140.9932
1.672                   0.981449       -142.7396
1.676                  0.9949086       -144.7241
1.68                    1.004602       -146.8694
1.684                   1.009608       -149.0792
1.688                   1.009729       -151.2531
1.692                   1.005462       -153.2975
1.696                  0.9978984       -155.1358
1.7                    0.9885552       -156.7179
1.704                  0.9791561       -158.0281
1.708                  0.9713664         -159.09
1.712                  0.9665221       -159.9653
1.716                  0.9654046       -160.7434
1.72                   0.9681159       -161.5248
1.724                  0.9740911       -162.4004
1.728                  0.9822408       -163.4347
1.732                  0.9911825       -164.6571
1.736                  0.9994961        -166.061
1.74                    1.005953         -167.61
1.744                   1.009688        -169.247
1.748                   1.010299       -170.9044
1.752                   1.007877       -172.5135
1.756                   1.002975       -174.0136
1.76                    0.996511       -175.3599
1.764                  0.9896267       -176.5304
1.768                  0.9835064       -177.5301
1.772                  0.9791815       -178.3915
1.776                  0.9773557       -179.1694
1.78                   0.9782857       -179.9309
1.784                  0.9817475        179.2574
1.788                  0.9870946        178.3423
1.792                  0.9933924        177.2925
1.796                  0.9995942        176.1023
1.8                     1.004719        174.7903
1.804                   1.008003        173.3936
1.808                   1.009005        171.9615
1.812                   1.007655        170.5473
1.816                   1.004258        169.2007
1.82                   0.9994346        167.9616
1.824                  0.9940217        166.8531
1.828                  0.9889412        165.8781
1.832                  0.9850461         165.018
1.836                  0.9829771        164.2353
1.84                   0.9830522        163.4801
1.844                  0.9852159        162.6995
1.848                   0.989059        161.8477
1.852                  0.9939029        160.8939
1.856                  0.9989257        159.8264
1.86                    1.003308        158.6538
1.864                   1.006362        157.4017
1.868                   1.007638        156.1075
1.872                   1.006979        154.8146
1.876                   1.004542        153.5658
1.88                    1.000765        152.3969
1.884                  0.9962962        151.3319
1.888                  0.9918902        150.3781
1.892                  0.9882847        149.5253
1.896                  0.9860756        148.7465
1.9                    0.9856147        148.0027
1.904                  0.9869512        147.2498
1.908                  0.9898275         146.447
1.912                  0.9937323         145.564
1.916                  0.9979962        144.5857
1.92                     1.00191         143.514
1.924                   1.004843        142.3666
1.928                   1.006338        141.1728
1.932                   1.006181         139.969
1.936                   1.004426        138.7929
1.94                    1.001383         137.678
1.944                  0.9975676        136.6486
1.948                   0.993619        135.7154
1.952                  0.9901947        134.8741
1.956                  0.9878609        134.1051
1.96                   0.9869964         133.377
1.964                  0.9877264        132.6519
1.968                   0.989904        131.8925
1.972                  0.9931406        131.0687
1.976                   0.996878        130.1626
1.98                    1.000488        129.1714
1.984                   1.003376        128.1064
1.988                   1.005079        126.9909
1.992                   1.005333        125.8562
1.996                    1.00411        124.7363
2                       1.001622         123.663
2.004                  0.9982829        122.6613
2.008                  0.9946445        121.7451
2.012                  0.9913081        120.9145
2.016                  0.9888235        120.1561
2.02                   0.9875973        119.4441
2.024                  0.9878205        118.7452
2.028                  0.9894381        118.0246
2.032                  0.9921602        117.2518
2.036                  0.9955154        116.4065
2.04                   0.9989349        115.4814
2.044                   1.001849        114.4825
2.048                   1.003779        113.4282
2.052                   1.004411        112.3457
2.056                   1.003645        111.2662
2.06                    1.001603        110.2209
2.064                  0.9986163        109.2358
2.068                  0.9951684        108.3279
2.072                  0.9918206         107.502
2.076                    0.98912        106.7494
2.08                   0.9875079        106.0495
2.084                  0.9872426        105.3725
2.088                  0.9883552        104.6849
2.092                  0.9906439        103.9556
2.096                  0.9937112         103.161
2.1                    0.9970333        102.2893
2.104                    1.00005        101.3418
2.108                   1.002255        100.3322
2.112                   1.003278        99.28391
2.116                    1.00294        98.22668
2.12                     1.00128        97.19155
2.124                  0.9985494         96.2065
2.128                  0.9951753        95.29205
2.132                  0.9916933        94.45776
2.136                  0.9886622        93.70027
2.14                   0.9865726        93.00331
2.144                  0.9857614        92.34003
2.148                  0.9863524         91.6776
2.152                  0.9882334         90.9829
2.156                  0.9910749        90.22847
2.16                   0.9943872        89.39716
2.164                  0.9976038        88.48473
2.168                   1.000174        87.50013
2.172                   1.001652        86.46373
2.176                   1.001766         85.4039
2.18                    1.000459        84.35272
2.184                  0.9979008        83.34123
2.188                  0.9944658        82.39468
2.192                  0.9906759        81.52848
2.196                  0.9871211        80.74517
2.2                    0.9843646        80.03327
2.204                  0.9828471        79.36861
2.208                  0.9828073        78.71799
2.212                  0.9842379        78.04493
2.216                  0.9868823        77.31607
2.22                   0.9902773        76.50713
2.224                  0.9938308        75.60679
2.228                  0.9969187        74.61831
2.232                  0.9989858        73.55861
2.236                   0.999633        72.45531
2.24                   0.9986798         71.3427
2.244                  0.9961962        70.25658
2.248                  0.9924964        69.22917
2.252                  0.9880986        68.28387
2.256                  0.9836498        67.43113
2.26                    0.979826        66.66572
2.264                  0.9772196        65.96637
2.268                  0.9762349        65.29849
2.272                  0.9770106        64.61969
2.276                  0.9793865         63.8872
2.28                   0.9829252        63.06547
2.284                  0.9869819        62.13237
2.288                  0.9908095        61.08255
2.292                   0.993678        59.92792
2.296                  0.9949892        58.69546
2.3                    0.9943703        57.42302
2.304                  0.9917354        56.15405
2.308                  0.9873079        54.93153
2.312                     0.9816        53.79156
2.316                  0.9753493        52.75722
2.32                   0.9694135        51.83337
2.324                  0.9646362        51.00366
2.328                  0.9616999        50.23101
2.332                  0.9609952        49.46227
2.336                  0.9625329        48.63697
2.34                   0.9659238        47.69781
2.344                  0.9704299        46.60094
2.348                   0.975079        45.32296
2.352                  0.9788136          43.864