! TOUCHSTONE file generated by CST MICROWAVE STUDIO
! Date and time: Tue Jun 14 13:48:56 2022
! Project name: AppElm_antenne_patch_FR4.cst
! Parameters = {L=45; W=58.5; e=0.035; h=1.6; lambda=0.190476; ls=120; w0=2.54; w1=0.847; ws=120; y0=18; y1=26.18}
! Header version: 2018
! Port assignment regex: !\s*Touchstone port\s*([0-9]+)\s*=\s*(CST MWS port|CST DS port)\s*([0-9]+|Zmin|Zmax)\s*\(\"(.*)\"\)(\s*mode\s*([0-9]+))?.*
! Touchstone port assignment:
! Touchstone port 1 = CST MWS port 1 ("")
# GHz S MA R 50
0                      0.9887987              -0
0.004                   0.989493       -10.03448
0.008                  0.9914761       -19.97494
0.012                  0.9944663       -29.73222
0.016                  0.9980433       -39.22598
0.02                    1.001714       -48.38747
0.024                   1.004985       -57.16058
0.028                   1.007433       -65.50199
0.032                    1.00876       -73.38042
0.036                   1.008833        -80.7759
0.04                    1.007695       -87.67916
0.044                   1.005556        -94.0913
0.048                    1.00276        -100.024
0.052                  0.9997332       -105.4993
0.056                  0.9969226       -110.5493
0.06                   0.9947277       -115.2151
0.064                  0.9934419       -119.5439
0.068                  0.9932097       -123.5862
0.072                  0.9940094        -127.391
0.076                   0.995662       -131.0027
0.08                    0.997867       -134.4571
0.084                   1.000254       -137.7797
0.088                   1.002444       -140.9854
0.092                   1.004109       -144.0794
0.096                    1.00502       -147.0595
0.1                     1.005073       -149.9187
0.104                   1.004305       -152.6487
0.108                   1.002878       -155.2426
0.112                   1.001053       -157.6974
0.116                  0.9991422       -160.0164
0.12                   0.9974627       -162.2092
0.124                  0.9962806       -164.2917
0.128                   0.995771       -166.2844
0.132                  0.9959916       -168.2096
0.136                  0.9968766       -170.0891
0.14                   0.9982529       -171.9407
0.144                  0.9998721       -173.7763
0.148                   1.001456       -175.6014
0.152                   1.002742       -177.4142
0.156                   1.003527       -179.2077
0.16                    1.003698        179.0291
0.164                   1.003246        177.3083
0.168                   1.002267        175.6414
0.172                   1.000941        174.0363
0.176                  0.9995002        172.4962
0.18                   0.9981927        171.0188
0.184                  0.9972363        169.5962
0.188                  0.9967846        168.2162
0.192                  0.9969012         166.864
0.196                  0.9975512        165.5249
0.2                    0.9986091        164.1864
0.204                  0.9998831        162.8402
0.208                    1.00115         161.483
0.212                   1.002193        160.1173
0.216                   1.002839        158.7499
0.22                    1.002986        157.3911
0.224                   1.002619        156.0522
0.228                    1.00181        154.7441
0.232                   1.000705        153.4747
0.236                  0.9994994        152.2481
0.24                   0.9984009        151.0634
0.244                  0.9975974        149.9151
0.248                  0.9972225        148.7936
0.252                  0.9973344        147.6869
0.256                   0.997905        146.5832
0.26                   0.9988283        145.4721
0.264                  0.9999386        144.3468
0.268                   1.001041        143.2049
0.272                   1.001944         142.049
0.276                   1.002496        140.8855
0.28                    1.002605        139.7239
0.284                   1.002258        138.5747
0.288                   1.001521        137.4478
0.292                   1.000523         136.351
0.296                  0.9994402        135.2879
0.3                    0.9984617        134.2581
0.304                  0.9977559        133.2566
0.308                  0.9974434         132.275
0.312                  0.9975749        131.3027
0.316                  0.9981234        130.3289
0.32                   0.9989896        129.3445
0.324                   1.000019        128.3435
0.328                   1.001032        127.3241
0.332                   1.001852        126.2889
0.336                   1.002339        125.2441
0.34                     1.00241        124.1989
0.344                   1.002056        123.1632
0.348                   1.001341        122.1465
0.352                    1.00039        121.1559
0.356                  0.9993707        120.1949
0.36                   0.9984603         119.263
0.364                  0.9978174        118.3554
0.368                  0.9975539        117.4641
0.372                  0.9977141        116.5789
0.376                  0.9982685        115.6898
0.38                   0.9991181        114.7881
0.384                   1.000114        113.8684
0.388                   1.001081        112.9294
0.392                   1.001851        111.9738
0.396                   1.002291        111.0079
0.4                     1.002326        110.0407
0.404                    1.00195        109.0819
0.408                    1.00123        108.1408
0.412                   1.000291         107.224
0.416                  0.9992987         106.335
0.42                   0.9984256        105.4728
0.424                  0.9978249        104.6326
0.428                  0.9976021        103.8063
0.432                  0.9977965        102.9841
0.436                  0.9983734        102.1561
0.44                   0.9992314         101.314
0.444                    1.00022        100.4527
0.448                   1.001166        99.57124
0.452                   1.001904        98.67258
0.456                   1.002305        97.76336
0.46                    1.002299        96.85257
0.464                   1.001887        95.95004
0.468                    1.00114        95.06481
0.472                   1.000186        94.20343
0.476                  0.9991929        93.36891
0.48                   0.9983336        92.56016
0.484                  0.9977591        91.77204
0.488                  0.9975708        90.99628
0.492                  0.9978021        90.22287
0.496                   0.998413         89.4419
0.5                    0.9992959        88.64531
0.504                   1.000296        87.82826
0.508                   1.001238        86.99006
0.512                   1.001955        86.13415
0.516                   1.002322        85.26746
0.52                    1.002273         84.3993
0.524                   1.001815         83.5397
0.528                   1.001025        82.69764
0.532                    1.00004        81.87963
0.536                  0.9990308         81.0884
0.54                   0.9981749        80.32242
0.544                  0.9976228        79.57617
0.548                  0.9974729        78.84094
0.552                  0.9977529        78.10639
0.556                  0.9984151        77.36253
0.56                   0.9993439        76.60124
0.564                   1.000376        75.81798
0.568                   1.001332         75.0124
0.572                   1.002042         74.1884
0.576                    1.00238        73.35348
0.58                    1.002287        72.51734
0.584                   1.001775        71.69033
0.588                   1.000931        70.88163
0.592                  0.9999016        70.09761
0.596                   0.998865        69.34074
0.6                     0.998004        68.60909
0.604                  0.9974711        67.89649
0.608                  0.9973624        67.19369
0.612                  0.9976992        66.48995
0.616                  0.9984245        65.77488
0.62                    0.999412        65.04043
0.624                   1.000489         64.2822
0.628                   1.001466        63.50029
0.632                   1.002171        62.69922
0.636                   1.002477        61.88707
0.64                    1.002329        61.07422
0.644                   1.001749        60.27141
0.648                   1.000834        59.48806
0.652                  0.9997417        58.73051
0.656                  0.9986625        58.00093
0.66                   0.9977864        57.29679
0.664                  0.9972691        56.61129
0.668                  0.9972044        55.93442
0.672                  0.9976068         55.2548
0.676                  0.9984079        54.56168
0.68                   0.9994687        53.84685
0.684                   1.000603        53.10619
0.688                   1.001612        52.34025
0.692                   1.002317        51.55425
0.696                    1.00259        50.75708
0.7                     1.002382        49.95981
0.704                   1.001722         49.1738
0.708                   1.000723        48.40874
0.712                  0.9995569        47.67097
0.716                  0.9984264         46.9623
0.72                   0.9975313        46.27955
0.724                  0.9970318        45.61508
0.728                  0.9970195        44.95801
0.732                  0.9975006        44.29617
0.736                  0.9983935        43.61832
0.74                   0.9995435        42.91611
0.744                   1.000749        42.18564
0.748                   1.001798        41.42806
0.752                   1.002503        40.64941
0.756                   1.002738        39.85953
0.76                    1.002456        39.07037
0.764                     1.0017        38.29399
0.768                   1.000598        37.54048
0.772                  0.9993381        36.81619
0.776                  0.9981401        36.12251
0.78                   0.9972158        35.45553
0.784                  0.9967302        34.80659
0.788                  0.9967736        34.16377
0.792                  0.9973421        33.51398
0.796                  0.9983393        32.84535
0.8                    0.9995913        32.14935
0.804                   1.000879        31.42231
0.808                   1.001974        30.66609
0.812                   1.002681        29.88768
0.816                   1.002871        29.09802
0.82                    1.002503        28.31011
0.824                   1.001636        27.53685
0.828                   1.000413         26.7888
0.832                  0.9990451        26.07232
0.836                    0.99777        25.38834
0.84                   0.9968136        24.73205
0.844                  0.9963484        24.09363
0.848                  0.9964617        23.45988
0.852                   0.997139        22.81662
0.856                  0.9982656        22.15121
0.86                    0.999646        21.45488
0.864                   1.001038        20.72427
0.868                   1.002197          19.962
0.872                   1.002914        19.17618
0.876                   1.003059        18.37906
0.88                    1.002598        17.58489
0.884                   1.001604        16.80757
0.888                   1.000243        16.05824
0.892                  0.9987482        15.34331
0.896                  0.9973815        14.66321
0.9                    0.9963854        14.01209
0.904                  0.9959405        13.37875
0.908                  0.9961322        12.74853
0.912                  0.9969333        12.10593
0.916                  0.9982082        11.43742
0.92                   0.9997356        10.73391
0.924                   1.001248        9.992367
0.928                   1.002477        9.216313
0.932                   1.003203        8.415195
0.936                    1.00329         7.60276
0.94                    1.002713        6.794758
0.944                   1.001563        6.006293
0.948                    1.00003         5.24924
0.952                  0.9983772         4.53011
0.956                   0.996893        3.848741
0.96                   0.9958409        3.198107
0.964                  0.9954125        2.565377
0.968                  0.9956914        1.934114
0.972                  0.9966364        1.287216
0.976                  0.9980874       0.6100463
0.98                   0.9997926      -0.1069156
0.984                   1.001453      -0.8663795
0.988                   1.002776       -1.663806
0.992                   1.003522       -2.488219
0.996                   1.003551       -3.324073
1                       1.002846       -4.153846
1.004                   1.001518       -4.960959
1.008                  0.9997868       -5.732613
1.012                  0.9979496       -6.462108
1.016                   0.996327       -7.150229
1.02                   0.9952087        -7.80538
1.024                  0.9948001       -8.442318
1.028                   0.995184       -9.079618
1.032                  0.9963029       -9.736334
1.036                  0.9979683        -10.4285
1.04                   0.9998919       -11.16621
1.044                   1.001737       -11.95184
1.048                   1.003177       -12.77968
1.052                   1.003952       -13.63695
1.056                   1.003914       -14.50595
1.06                    1.003053       -15.36696
1.064                   1.001504       -16.20147
1.068                  0.9995208       -16.99558
1.072                  0.9974425       -17.74212
1.076                  0.9956307       -18.44254
1.08                   0.9944082       -19.10684
1.084                      0.994       -19.75205
1.088                  0.9944903       -20.39939
1.092                  0.9958045       -21.07038
1.096                  0.9977203       -21.78291
1.1                     0.999906       -22.54781
1.104                   1.001978       -23.36735
1.108                   1.003568        -24.2344
1.112                   1.004388        -25.1341
1.116                   1.004276       -26.04604
1.12                    1.003232       -26.94785
1.124                   1.001414       -27.81869
1.128                  0.9991207       -28.64285
1.132                  0.9967413       -29.41266
1.136                  0.9946894       -30.13014
1.14                   0.9933316       -30.80715
1.144                  0.9929206       -31.46361
1.148                  0.9935452       -32.12405
1.152                  0.9951118       -32.81323
1.156                  0.9973578       -33.55146
1.16                   0.9998967       -34.35099
1.164                   1.002285       -35.21377
1.168                   1.004099       -36.13131
1.172                    1.00501       -37.08606
1.176                   1.004837       -38.05442
1.18                    1.003583       -39.01045
1.184                   1.001438       -39.93012
1.188                  0.9987501       -40.79534
1.192                  0.9959736       -41.59732
1.196                  0.9935903       -42.33857
1.2                    0.9920271       -43.03309
1.204                  0.9915767       -43.70432
1.208                  0.9923404       -44.38117
1.212                  0.9942049       -45.09266
1.216                  0.9968585       -45.86259
1.22                   0.9998451       -46.70514
1.224                   1.002642       -47.62242
1.228                   1.004753        -48.6042
1.232                   1.005788       -49.62976
1.236                   1.005537       -50.67123
1.24                    1.004002         -51.698
1.244                   1.001407       -52.68156
1.248                  0.9981653        -53.6003
1.252                  0.9948159        -54.4435
1.256                  0.9919361       -55.21384
1.26                   0.9900396       -55.92786
1.264                  0.9894822       -56.61365
1.268                  0.9903908       -57.30606
1.272                  0.9926334       -58.04036
1.276                  0.9958376       -58.84553
1.28                   0.9994542       -59.73894
1.284                   1.002852       -60.72343
1.288                   1.005424       -61.78694
1.292                   1.006697       -62.90465
1.296                   1.006402       -64.04303
1.3                     1.004533       -65.16498
1.304                   1.001351       -66.23549
1.308                  0.9973502       -67.22747
1.312                   0.993188       -68.12675
1.316                  0.9895777       -68.93551
1.32                   0.9871648       -69.67327
1.324                  0.9864067        -70.3744
1.328                   0.987481       -71.08242
1.332                  0.9902409       -71.84196
1.336                   0.994235        -72.6902
1.34                   0.9987824       -73.65005
1.344                   1.003089        -74.7261
1.348                   1.006385       -75.90431
1.352                   1.008051       -77.15446
1.356                   1.007723       -78.43492
1.36                    1.005359       -79.69889
1.364                   1.001258        -80.9012
1.368                  0.9960245        -82.0055
1.372                  0.9904884       -82.99096
1.376                  0.9855762       -83.85741
1.38                    0.982153        -84.6275
1.384                  0.9808602       -85.34467
1.388                  0.9819836       -86.06613
1.392                  0.9853826       -86.85226
1.396                  0.9905013       -87.75485
1.4                    0.9964597        -88.8074
1.404                   1.002204       -90.01923
1.408                   1.006685       -91.37469
1.412                   1.009029       -92.83623
1.416                   1.008681       -94.35017
1.42                    1.005503       -95.85422
1.424                  0.9998142       -97.28581
1.428                  0.9923705       -98.59156
1.432                  0.9842764       -99.73656
1.436                  0.9768282       -100.7132
1.44                   0.9713035       -101.5466
1.444                  0.9687226       -102.2947
1.448                   0.969632         -103.04
1.452                   0.973965       -103.8746
1.456                   0.981023       -104.8821
1.46                   0.9895808       -106.1207
1.464                  0.9980935       -107.6142
1.468                   1.004949       -109.3491
1.472                   1.008722       -111.2793
1.476                   1.008386       -113.3329
1.48                    1.003484       -115.4215
1.484                   0.994218       -117.4505
1.488                  0.9814868       -119.3297
1.492                  0.9668227       -120.9884
1.496                  0.9522337       -122.3912
1.5                    0.9399218       -123.5555
1.504                  0.9318942       -124.5628
1.508                  0.9295209       -125.5565
1.512                  0.9331538       -126.7211
1.516                  0.9419338       -128.2468
1.52                   0.9538534       -130.2928
1.524                  0.9660419        -132.964
1.528                  0.9751646       -136.3065
1.532                  0.9778177       -140.3171
1.536                  0.9708529       -144.9595
1.54                   0.9516069         -150.18
1.544                  0.9180487       -155.9193
1.548                  0.8688595       -162.1221
1.552                  0.8034663       -168.7433
1.556                  0.7220406       -175.7566
1.56                   0.6254686        176.8323
1.564                  0.5153069        168.9514
1.568                  0.3937394        160.3586
1.572                  0.2636279        150.2124
1.576                  0.1294767        133.9331
1.58                  0.04155231        30.45847
1.584                  0.1606182       -30.10759
1.588                  0.2945026       -43.85773
1.592                  0.4229475       -53.49954
1.596                  0.5421048       -61.90075
1.6                    0.6492821       -69.67719
1.604                  0.7424291       -77.01348
1.608                  0.8201297       -83.96082
1.612                  0.8816488       -90.51532
1.616                  0.9269768       -96.64478
1.62                    0.956853       -102.3006
1.624                  0.9727639       -107.4247
1.628                   0.976901       -111.9568
1.632                  0.9720709       -115.8444
1.636                  0.9615313       -119.0555
1.64                   0.9487417       -121.5954
1.644                  0.9370152        -123.523
1.648                  0.9291062       -124.9581
1.652                  0.9268144       -126.0731
1.656                  0.9307321       -127.0651
1.66                   0.9402342       -128.1167
1.664                   0.953727       -129.3618
1.668                  0.9690628       -130.8685
1.672                  0.9839895       -132.6407
1.676                   0.996525       -134.6323
1.68                    1.005217       -136.7643
1.684                   1.009281       -138.9421
1.688                   1.008641       -141.0683
1.692                   1.003887        -143.054
1.696                   0.996164       -144.8288
1.7                    0.9869997       -146.3494
1.704                  0.9780762       -147.6077
1.708                  0.9709682       -148.6336
1.712                  0.9668852       -149.4928
1.716                  0.9664677       -150.2753
1.72                   0.9696911       -151.0776
1.724                  0.9759036       -151.9838
1.728                  0.9839836       -153.0506
1.732                   0.992572       -154.2996
1.736                   1.000318       -155.7188
1.74                    1.006093       -157.2688
1.744                   1.009144       -158.8916
1.748                   1.009175       -160.5212
1.752                   1.006369       -162.0922
1.756                   1.001338       -163.5488
1.76                   0.9950208       -164.8519
1.764                  0.9885373       -165.9859
1.768                  0.9830057       -166.9614
1.772                  0.9793582       -167.8147
1.776                  0.9781825       -168.6016
1.78                    0.979624       -169.3869
1.784                  0.9833747       -170.2324
1.788                  0.9887464       -171.1847
1.792                  0.9948107       -172.2685
1.796                   1.000571       -173.4839
1.8                     1.005126       -174.8091
1.804                   1.007812       -176.2054
1.808                   1.008284       -177.6245
1.812                    1.00656       -179.0158
1.816                   1.003004        179.6665
1.82                    0.998261        178.4567
1.824                   0.993155        177.3726
1.828                  0.9885546        176.4122
1.832                  0.9852291        175.5531
1.836                  0.9837177        174.7566
1.84                    0.984239        173.9746
1.844                  0.9866591         173.158
1.848                  0.9905257        172.2667
1.852                  0.9951594        171.2757
1.856                  0.9997789        170.1787
1.86                    1.003636        168.9876
1.864                   1.006132        167.7295
1.868                   1.006909        166.4413
1.872                   1.005893         165.164
1.876                   1.003297        163.9365
1.88                   0.9995846          162.79
1.884                  0.9953942        161.7429
1.888                  0.9914327        160.7982
1.892                  0.9883607        159.9421
1.896                  0.9866803        159.1466
1.9                    0.9866506        158.3737
1.904                  0.9882448         157.583
1.908                  0.9911627        156.7388
1.912                  0.9948892        155.8164
1.916                  0.9987909        154.8056
1.92                    1.002225        153.7118
1.924                   1.004644        152.5542
1.928                    1.00568        151.3618
1.932                   1.005198        150.1687
1.936                   1.003305        149.0087
1.94                    1.000338        147.9108
1.944                  0.9968016        146.8942
1.948                  0.9932873        145.9654
1.952                  0.9903794        145.1167
1.956                   0.988554        144.3274
1.96                   0.9880999        143.5675
1.964                  0.9890702        142.8024
1.968                  0.9912764        141.9997
1.972                  0.9943269        141.1348
1.976                  0.9976989        140.1949
1.98                    1.000829        139.1802
1.984                   1.003208        138.1038
1.988                    1.00446        136.9884
1.992                   1.004397        135.8629
1.996                   1.003045        134.7576
2                       1.000639        133.6997
2.004                  0.9975795        132.7091
2.008                  0.9943717        131.7955
2.012                  0.9915424        130.9562
2.016                  0.9895518        130.1764
2.02                   0.9887177        129.4319
2.024                  0.9891611        128.6928
2.028                  0.9907871        127.9292
2.032                  0.9933048        127.1161
2.036                  0.9962806        126.2382
2.04                   0.9992135        125.2912
2.044                    1.00162        124.2829
2.048                   1.003109        123.2309
2.052                   1.003444        122.1596
2.056                   1.002576        121.0964
2.06                    1.000648        120.0677
2.064                  0.9979742        119.0945
2.068                  0.9949862        118.1895
2.072                  0.9921674        117.3545
2.076                  0.9899727        116.5803
2.08                   0.9887536        115.8475
2.084                  0.9886978        115.1302
2.088                  0.9897984        114.4001
2.092                  0.9918565        113.6316
2.096                  0.9945166        112.8063
2.1                    0.9973285        111.9157
2.104                  0.9998225        110.9623
2.108                   1.001585        109.9588
2.112                   1.002324        108.9258
2.116                    1.00191        107.8887
2.12                    1.000399        106.8733
2.124                  0.9980203        105.9025
2.128                  0.9951429        104.9924
2.132                  0.9922178          104.15
2.136                  0.9897069        103.3712
2.14                    0.988007        102.6416
2.144                  0.9873835        101.9385
2.148                  0.9879247        101.2347
2.152                  0.9895259        100.5032
2.156                  0.9919078        99.72159
2.16                   0.9946625        98.87626
2.164                  0.9973231        97.96402
2.168                  0.9994376        96.99247
2.172                   1.000641        95.97846
2.176                   1.000712        94.94547
2.18                    0.999605        93.91997
2.184                  0.9974612        92.92752
2.188                  0.9945869        91.98886
2.192                  0.9914097         91.1167
2.196                  0.9884137        90.31318
2.2                    0.9860614        89.56917
2.204                  0.9847188        88.86517
2.208                  0.9845906        88.17431
2.212                  0.9856828        87.46681
2.216                  0.9877987        86.71501
2.22                   0.9905705        85.89822
2.224                  0.9935173        85.00595
2.228                  0.9961244        84.03957
2.232                   0.997923        83.01181
2.236                  0.9985649         81.9446
2.24                   0.9978761        80.86593
2.244                  0.9958872        79.80561
2.248                  0.9928335        78.79099
2.252                  0.9891245        77.84281
2.256                  0.9852877        76.97138
2.26                   0.9818877        76.17429
2.264                   0.979436        75.43583
2.268                  0.9783024        74.72879
2.272                  0.9786466        74.01856
2.276                   0.980383        73.26892
2.28                   0.9831881         72.4483
2.284                  0.9865492        71.53518
2.288                  0.9898445         70.5216
2.292                  0.9924418        69.41424
2.296                  0.9937969        68.23319
2.3                    0.9935391        67.00895
2.304                   0.991532        65.77808
2.308                  0.9879032        64.57815
2.312                   0.983037        63.44217
2.316                  0.9775299        62.39313
2.32                   0.9721087        61.43925
2.324                  0.9675207        60.57082
2.328                  0.9644074        59.75974
2.332                  0.9631861        58.96263
2.336                  0.9639604        58.12732
2.34                   0.9664828        57.20163
2.344                    0.97018        56.14243
2.348                  0.9742348        54.92287
2.352                  0.9777103        53.53631