! TOUCHSTONE file generated by CST MICROWAVE STUDIO
! Date and time: Tue Jun 14 13:48:52 2022
! Project name: AppElm_antenne_patch_FR4.cst
! Parameters = {L=45; W=58.5; e=0.035; h=1.6; lambda=0.190476; ls=120; w0=2.54; w1=0.847; ws=120; y0=18; y1=21.42}
! Header version: 2018
! Port assignment regex: !\s*Touchstone port\s*([0-9]+)\s*=\s*(CST MWS port|CST DS port)\s*([0-9]+|Zmin|Zmax)\s*\(\"(.*)\"\)(\s*mode\s*([0-9]+))?.*
! Touchstone port assignment:
! Touchstone port 1 = CST MWS port 1 ("")
# GHz S MA R 50
0                      0.9861677              -0
0.004                  0.9869541        -9.91997
0.008                  0.9892091       -19.74799
0.012                  0.9926362       -29.39694
0.016                  0.9967906       -38.78841
0.02                    1.001143       -47.85537
0.024                   1.005153       -56.54315
0.028                   1.008341       -64.80924
0.032                   1.010343       -72.62254
0.036                   1.010959       -79.96221
0.04                    1.010168       -86.81693
0.044                   1.008131       -93.18466
0.048                    1.00516       -99.07263
0.052                   1.001684       -104.4977
0.056                  0.9981854       -109.4868
0.06                   0.9951365       -114.0761
0.064                  0.9929329       -118.3098
0.068                  0.9918391       -122.2376
0.072                  0.9919528        -125.911
0.076                  0.9931955        -129.379
0.08                   0.9953306       -132.6844
0.084                  0.9980035       -135.8604
0.088                     1.0008       -138.9297
0.092                   1.003309       -141.9034
0.096                    1.00518       -144.7832
0.1                     1.006173       -147.5635
0.104                   1.006184       -150.2339
0.108                   1.005256        -152.783
0.112                    1.00357       -155.2011
0.116                   1.001412       -157.4829
0.12                   0.9991287       -159.6294
0.124                   0.997077       -161.6492
0.128                  0.9955666       -163.5576
0.132                  0.9948144       -165.3757
0.136                   0.994912       -167.1275
0.14                   0.9958145       -168.8367
0.144                   0.997352       -170.5239
0.148                  0.9992596       -172.2037
0.152                   1.001223       -173.8836
0.156                   1.002932       -175.5633
0.16                    1.004122       -177.2357
0.164                   1.004622        -178.889
0.168                   1.004373        179.4914
0.172                   1.003433          177.92
0.176                    1.00197        176.4088
0.18                    1.000231        174.9649
0.184                  0.9985045        173.5896
0.188                  0.9970691        172.2775
0.192                  0.9961532        171.0171
0.196                  0.9958957         169.793
0.2                    0.9963248        168.5877
0.204                  0.9973554        167.3847
0.208                  0.9988048        166.1711
0.212                   1.000425        164.9393
0.216                   1.001947        163.6879
0.22                     1.00312         162.422
0.224                   1.003759        161.1516
0.228                   1.003767        159.8897
0.232                   1.003152        158.6505
0.236                   1.002023        157.4467
0.24                    1.000576        156.2874
0.244                  0.9990532        155.1768
0.248                  0.9977098         154.113
0.252                  0.9967685        153.0883
0.256                  0.9963829        152.0906
0.26                   0.9966106        151.1053
0.264                  0.9974057        150.1177
0.268                  0.9986271        149.1154
0.272                   1.000063        148.0906
0.276                   1.001469        147.0411
0.28                    1.002609        145.9703
0.284                   1.003293        144.8868
0.288                   1.003411        143.8025
0.292                   1.002948         142.731
0.296                   1.001986        141.6848
0.3                     1.000691        140.6737
0.304                  0.9992836        139.7027
0.308                  0.9980046        138.7714
0.312                   0.997071         137.874
0.316                  0.9966401        136.9997
0.32                    0.996783        136.1353
0.324                  0.9974713         135.267
0.328                   0.998583        134.3827
0.332                  0.9999251        133.4745
0.336                   1.001266        132.5397
0.34                    1.002377        131.5811
0.344                   1.003069        130.6064
0.348                   1.003226        129.6272
0.352                   1.002824        128.6565
0.356                   1.001933        127.7067
0.36                    1.000707        126.7876
0.364                  0.9993577        125.9048
0.368                   0.998117        125.0584
0.372                  0.9971998         124.243
0.376                  0.9967639        123.4488
0.38                   0.9968843        122.6629
0.384                  0.9975387        121.8718
0.388                  0.9986123        121.0638
0.392                  0.9999175        120.2309
0.396                   1.001228        119.3703
0.4                     1.002318        118.4846
0.404                   1.002999        117.5815
0.408                   1.003156        116.6722
0.412                   1.002761        115.7697
0.416                   1.001884        114.8864
0.42                    1.000677        114.0321
0.424                  0.9993473        113.2124
0.428                   0.998128        112.4274
0.432                  0.9972316         111.672
0.436                  0.9968152        110.9361
0.44                    0.996952        110.2071
0.444                  0.9976183        109.4714
0.448                  0.9986976        108.7175
0.452                          1        107.9375
0.456                   1.001299        107.1288
0.46                    1.002368        106.2943
0.464                   1.003021        105.4418
0.468                   1.003143        104.5828
0.472                   1.002713        103.7304
0.476                   1.001804        102.8971
0.48                    1.000572        102.0926
0.484                  0.9992333        101.3222
0.488                  0.9980199         100.586
0.492                  0.9971455        99.87815
0.496                  0.9967646        99.18851
0.5                    0.9969451        98.50399
0.504                  0.9976559        97.81102
0.508                  0.9987721        97.09803
0.512                   1.000097        96.35748
0.516                   1.001398        95.58706
0.52                    1.002446        94.79026
0.524                   1.003057        93.97548
0.528                   1.003122        93.15464
0.532                   1.002628        92.34116
0.536                   1.001659        91.54763
0.54                    1.000382         90.7837
0.544                  0.9990197        90.05428
0.548                   0.997812        89.35869
0.552                  0.9969727        88.69062
0.556                  0.9966516        88.03913
0.56                   0.9969076        87.39064
0.564                  0.9976971        86.73134
0.568                  0.9988817        86.04968
0.572                   1.000252        85.33852
0.576                   1.001568        84.59625
0.58                    1.002596        83.82707
0.584                   1.003154        83.04027
0.588                   1.003142        82.24845
0.592                    1.00256        81.46552
0.596                   1.001506        80.70419
0.6                     1.000163        79.97387
0.604                  0.9987666        79.27896
0.608                  0.9975632        78.61792
0.612                  0.9967674        77.98346
0.616                  0.9965231        77.36376
0.62                    0.996876        76.74451
0.624                  0.9977661        76.11157
0.628                  0.9990364        75.45355
0.632                   1.000463        74.76375
0.636                   1.001792         74.0415
0.64                    1.002789        73.29206
0.644                   1.003275        72.52574
0.648                   1.003161        71.75605
0.652                   1.002463        70.99742
0.656                   1.001299        70.26274
0.66                   0.9998727        69.56109
0.664                  0.9984336        68.89607
0.668                  0.9972372         68.2651
0.672                  0.9964985        67.65964
0.676                   0.996352        67.06673
0.68                   0.9968274        66.47122
0.684                  0.9978432        65.85858
0.688                  0.9992203        65.21758
0.692                   1.000715        64.54229
0.696                   1.002062        63.83307
0.7                     1.003021        63.09652
0.704                    1.00342        62.34417
0.708                   1.003184         61.5906
0.712                    1.00235        60.85086
0.716                   1.001061        60.13794
0.72                   0.9995408        59.46049
0.724                   0.998058        58.82113
0.728                  0.9968773        58.21595
0.732                  0.9962127        57.63493
0.736                  0.9961867        57.06377
0.74                   0.9968083        56.48638
0.744                  0.9979705        55.88787
0.748                  0.9994676        55.25733
0.752                   1.001034        54.58972
0.756                   1.002391        53.88676
0.76                    1.003295        53.15653
0.764                   1.003581        52.41211
0.768                   1.003193        51.66921
0.772                   1.002193        50.94359
0.776                   1.000751        50.24827
0.78                   0.9991196        49.59131
0.784                  0.9975861        48.97414
0.788                  0.9964252        48.39123
0.792                  0.9958475        47.83087
0.796                  0.9959611         47.2772
0.8                    0.9967501        46.71311
0.804                  0.9980768        46.12339
0.808                  0.9997061        45.49752
0.812                   1.001348        44.83161
0.816                   1.002707        44.12894
0.82                     1.00354        43.39942
0.824                   1.003691        42.65774
0.828                   1.003128        41.92095
0.832                   1.001942        41.20546
0.836                   1.000335        40.52429
0.84                   0.9985892        39.88468
0.844                  0.9970142        39.28662
0.848                  0.9958937        38.72269
0.852                  0.9954336        38.17918
0.856                  0.9957224        37.63852
0.86                   0.9967148        37.08248
0.864                  0.9982375        36.49558
0.868                   1.000021        35.86791
0.872                   1.001747        35.19694
0.876                   1.003107        34.48784
0.88                    1.003855        33.75254
0.884                    1.00385        33.00766
0.888                   1.003085        32.27164
0.892                   1.001687        31.56162
0.896                  0.9998959         30.8905
0.9                    0.9980258        30.26452
0.904                  0.9964106        29.68196
0.908                  0.9953429        29.13319
0.912                  0.9950209        28.60226
0.916                    0.99551        28.06967
0.92                   0.9967294        27.51603
0.924                  0.9984651        26.92568
0.928                   1.000409        26.28952
0.932                   1.002214        25.60666
0.936                   1.003555        24.88446
0.94                    1.004186         24.1372
0.944                   1.003987         23.3836
0.948                    1.00298        22.64366
0.952                   1.001333        21.93527
0.956                  0.9993289        21.27106
0.96                   0.9973201        20.65605
0.964                   0.995666        20.08645
0.968                  0.9946679        19.55008
0.972                  0.9945136        19.02835
0.976                  0.9952399        18.49964
0.98                   0.9967244         17.9433
0.984                  0.9987069        17.34354
0.988                   1.000835        16.69227
0.992                   1.002728        15.99058
0.996                   1.004044        15.24835
1                       1.004541        14.48253
1.004                   1.004119        13.71424
1.008                   1.002839        12.96518
1.012                   1.000915        12.25401
1.016                  0.9986792        11.59301
1.02                   0.9965263        10.98569
1.024                  0.9948439        10.42583
1.028                  0.9939419        9.898242
1.032                  0.9939938        9.381359
1.036                  0.9950023        8.851131
1.04                   0.9967958        8.285564
1.044                  0.9990593        7.668843
1.048                    1.00139        6.994199
1.052                   1.003371        6.265038
1.056                   1.004641        5.494226
1.06                    1.004964        4.701819
1.064                   1.004265        3.911671
1.068                    1.00265        3.147476
1.072                   1.000389         2.42874
1.076                  0.9978705        1.767283
1.08                   0.9955395        1.164833
1.084                  0.9938161       0.6122714
1.088                  0.9930197      0.09088062
1.092                  0.9933065      -0.4244466
1.096                  0.9946381      -0.9605729
1.1                    0.9967853       -1.541032
1.104                  0.9993692       -2.181612
1.108                   1.001928       -2.887518
1.112                   1.004002       -3.652557
1.116                   1.005209       -4.460431
1.12                     1.00532       -5.287377
1.124                   1.004292       -6.106399
1.128                   1.002283        -6.89142
1.132                  0.9996283        -7.62198
1.136                  0.9967855       -8.286818
1.14                   0.9942586       -8.886374
1.144                  0.9925071       -9.433285
1.148                  0.9918604       -9.950583
1.152                  0.9924537       -10.46765
1.156                  0.9941983       -11.01478
1.16                   0.9967948       -11.61733
1.164                  0.9997861       -12.29105
1.168                   1.002639       -13.03923
1.172                   1.004841       -13.85234
1.176                   1.005986       -14.70981
1.18                    1.005848       -15.58355
1.184                   1.004423       -16.44253
1.188                   1.001934       -17.25786
1.192                  0.9987932       -18.00767
1.196                  0.9955448        -18.6813
1.2                    0.9927659       -19.28174
1.204                  0.9909656       -19.82594
1.208                  0.9904883       -20.34225
1.212                  0.9914445       -20.86541
1.216                  0.9936841       -21.42999
1.22                    0.996821       -22.06372
1.224                   1.000301       -22.78235
1.228                   1.003502       -23.58684
1.232                   1.005843       -24.46355
1.236                   1.006884       -25.38668
1.24                    1.006405       -26.32259
1.244                   1.004448       -27.23516
1.248                   1.001313       -28.09163
1.252                  0.9975162       -28.86819
1.256                  0.9937102       -29.55463
1.26                   0.9905715       -30.15708
1.264                  0.9886784       -30.69801
1.268                  0.9883997       -31.21276
1.272                  0.9898179       -31.74332
1.276                  0.9927064       -32.33018
1.28                   0.9965667       -33.00447
1.284                   1.000716       -33.78223
1.288                   1.004411        -34.6617
1.292                   1.006976       -35.62403
1.296                    1.00792       -36.63665
1.3                     1.007024       -37.65855
1.304                   1.004381       -38.64667
1.308                   1.000392       -39.56267
1.312                  0.9957089       -40.37956
1.316                  0.9911348       -41.08724
1.32                   0.9874867       -41.69567
1.324                  0.9854468       -42.23466
1.328                  0.9854269       -42.74942
1.332                  0.9874792       -43.29233
1.336                  0.9912759       -43.91262
1.34                    0.996162       -44.64678
1.344                   1.001273       -45.51178
1.348                   1.005687       -46.50248
1.352                   1.008585       -47.59304
1.356                    1.00939       -48.74154
1.36                    1.007865       -49.89637
1.364                   1.004167       -51.00396
1.368                  0.9988301       -52.01701
1.372                  0.9927027       -52.90261
1.376                  0.9868163        -53.6493
1.38                   0.9822136       -54.27162
1.384                  0.9797561       -54.80995
1.388                  0.9799479       -55.32469
1.392                  0.9828193       -55.88513
1.396                  0.9879036       -56.55553
1.4                    0.9943131       -57.38226
1.404                   1.000896       -58.38539
1.408                    1.00644       -59.55593
1.412                   1.009877        -60.8584
1.416                    1.01046       -62.23684
1.42                    1.007891       -63.62304
1.424                   1.002388       -64.94585
1.428                  0.9946801       -66.14148
1.432                  0.9859225       -67.16437
1.436                  0.9775415       -67.99766
1.44                   0.9710001       -68.66089
1.444                  0.9675256       -69.21182
1.448                  0.9678484       -69.73896
1.452                  0.9720186       -70.34538
1.456                  0.9793601        -71.1273
1.46                   0.9885753       -72.15443
1.464                  0.9979731       -73.45763
1.468                   1.005757       -75.02591
1.472                   1.010317        -76.8107
1.476                   1.010478       -78.73433
1.48                    1.005686       -80.70018
1.484                  0.9961241       -82.60377
1.488                  0.9827495       -84.34525
1.492                   0.967232         -85.845
1.496                  0.9517786       -87.06219
1.5                    0.9388198       -88.01454
1.504                  0.9305668        -88.7917
1.508                  0.9285082       -89.55257
1.512                  0.9329808       -90.50067
1.516                  0.9429665       -91.84248
1.52                   0.9561893       -93.74619
1.524                  0.9694631       -96.31692
1.528                  0.9791513       -99.59428
1.532                  0.9816068       -103.5653
1.536                  0.9735167       -108.1833
1.54                   0.9521387       -113.3847
1.544                  0.9154446       -119.1017
1.548                  0.8621925       -125.2708
1.552                  0.7919515       -131.8389
1.556                  0.7050857       -138.7694
1.56                   0.6027127        -146.054
1.564                  0.4866401       -153.7428
1.568                  0.3592956       -162.0463
1.572                  0.2237253       -171.8252
1.576                 0.08466714        170.0173
1.58                  0.06724088         21.5322
1.584                  0.2057065      -0.7119833
1.588                  0.3418457       -10.86055
1.592                   0.470126       -19.27917
1.596                  0.5874401       -27.03025
1.6                    0.6913264        -34.3635
1.604                  0.7799402       -41.34172
1.608                  0.8521177       -47.96252
1.612                  0.9074357       -54.19319
1.616                  0.9462522       -59.98374
1.62                    0.969721        -65.2736
1.624                  0.9797668       -69.99767
1.628                  0.9790166       -74.09426
1.632                   0.970664       -77.51665
1.636                  0.9582488       -80.24893
1.64                   0.9453347       -82.32362
1.644                  0.9350977       -83.83487
1.648                  0.9298867       -84.93788
1.652                  0.9308766       -85.82833
1.656                   0.937942       -86.70467
1.66                   0.9498146       -87.72817
1.664                  0.9644667       -88.99657
1.668                   0.979586       -90.53846
1.672                  0.9930106       -92.32403
1.676                   1.003047       -94.28308
1.68                     1.00866       -96.32323
1.684                   1.009539       -98.34528
1.688                   1.006086       -100.2557
1.692                  0.9993069       -101.9772
1.696                  0.9906518       -103.4585
1.7                    0.9817871       -104.6819
1.704                  0.9743333       -105.6684
1.708                  0.9695955       -106.4757
1.712                  0.9683423       -107.1888
1.716                  0.9706854       -107.9029
1.72                   0.9760935       -108.7043
1.724                  0.9835333       -109.6543
1.728                  0.9916951       -110.7802
1.732                  0.9992428       -112.0752
1.736                   1.005035       -113.5041
1.74                    1.008288       -115.0123
1.744                   1.008669       -116.5359
1.748                   1.006315       -118.0111
1.752                   1.001792       -119.3832
1.756                  0.9959875       -120.6139
1.76                   0.9899707       -121.6874
1.764                  0.9848082       -122.6136
1.768                  0.9813863       -123.4267
1.772                  0.9802581       -124.1793
1.776                   0.981554       -124.9323
1.78                   0.9849743        -125.743
1.784                  0.9898645       -126.6546
1.788                  0.9953521       -127.6888
1.792                   1.000511       -128.8445
1.796                   1.004522       -130.1001
1.8                     1.006793       -131.4187
1.804                   1.007048       -132.7551
1.808                   1.005346       -134.0629
1.812                   1.002064       -135.3014
1.816                  0.9978233       -136.4417
1.82                    0.993387       -137.4711
1.824                  0.9895287       -138.3953
1.828                  0.9869016       -139.2376
1.832                   0.985927       -140.0352
1.836                  0.9867244       -140.8313
1.84                   0.9891013       -141.6678
1.844                     0.9926       -142.5769
1.848                    0.99659       -143.5762
1.852                   1.000387       -144.6667
1.856                   1.003371       -145.8337
1.86                    1.005083       -147.0504
1.864                   1.005296       -148.2833
1.868                   1.004034       -149.4971
1.872                   1.001567       -150.6605
1.876                  0.9983533        -151.751
1.88                   0.9949653       -152.7583
1.884                  0.9919887       -153.6861
1.888                  0.9899235       -154.5513
1.892                  0.9890982       -155.3813
1.896                  0.9896182       -156.2086
1.9                    0.9913525       -157.0647
1.904                  0.9939655       -157.9745
1.908                  0.9969858       -158.9525
1.912                  0.9998921       -160.0002
1.916                   1.002205       -161.1074
1.92                    1.003562       -162.2542
1.924                   1.003777       -163.4149
1.928                   1.002856       -164.5625
1.932                   1.000994       -165.6724
1.936                  0.9985381        -166.727
1.94                   0.9959216       -167.7178
1.944                  0.9935942       -168.6472
1.948                  0.9919426       -169.5276
1.952                  0.9912266       -170.3794
1.956                  0.9915366       -171.2272
1.96                    0.992784        -172.095
1.964                  0.9947229       -173.0022
1.968                  0.9969994       -173.9605
1.972                  0.9992177       -174.9717
1.976                   1.001008       -176.0288
1.98                    1.002087        -177.117
1.984                   1.002302        -178.217
1.988                   1.001648        -179.308
1.992                   1.000265        179.6287
1.996                  0.9984086         178.607
2                      0.9964041        177.6336
2.004                  0.9945904        176.7074
2.008                  0.9932624        175.8194
2.012                  0.9926221        174.9548
2.016                  0.9927468        174.0953
2.02                   0.9935813        173.2231
2.024                  0.9949521        172.3233
2.028                   0.996604        171.3869
2.032                   0.998246        170.4116
2.036                  0.9996031        169.4021
2.04                     1.00046        168.3686
2.044                   1.000696         167.325
2.048                   1.000296        166.2863
2.052                  0.9993497        165.2663
2.056                   0.998034        164.2755
2.06                   0.9965764        163.3191
2.064                  0.9952171         162.397
2.068                  0.9941686        161.5034
2.072                  0.9935802        160.6284
2.076                  0.9935181        159.7597
2.08                    0.993957        158.8848
2.084                  0.9947909        157.9933
2.088                  0.9958548        157.0783
2.092                  0.9969571        156.1374
2.096                   0.997912        155.1729
2.1                    0.9985693        154.1907
2.104                  0.9988362        153.1993
2.108                  0.9986878        152.2083
2.112                  0.9981653        151.2268
2.116                  0.9973651        150.2617
2.12                   0.9964186        149.3172
2.124                  0.9954688        148.3941
2.128                  0.9946477          147.49
2.132                   0.994055        146.6001
2.136                  0.9937475        145.7179
2.14                   0.9937336        144.8365
2.144                  0.9939775        143.9495
2.148                    0.99441        143.0525
2.152                  0.9949422        142.1426
2.156                  0.9954812        141.2194
2.16                   0.9959435        140.2842
2.164                  0.9962643        139.3396
2.168                  0.9964032        138.3894
2.172                  0.9963443        137.4371
2.176                  0.9960945        136.4865
2.18                   0.9956782        135.5406
2.184                  0.9951317        134.6017
2.188                  0.9944997        133.6713
2.192                   0.993831        132.7503
2.196                  0.9931762        131.8386
2.2                    0.9925859        130.9356
2.204                  0.9921085        130.0396
2.208                  0.9917855        129.1482
2.212                  0.9916483        128.2581
2.216                  0.9917108        127.3654
2.22                   0.9919642        126.4654
2.224                  0.9923708        125.5537
2.228                  0.9928651        124.6265
2.232                  0.9933554        123.6815
2.236                  0.9937339        122.7183
2.24                   0.9938902        121.7388
2.244                  0.9937304        120.7478
2.248                  0.9931938        119.7518
2.252                  0.9922708        118.7592
2.256                  0.9910105         117.778
2.26                   0.9895239        116.8152
2.264                  0.9879721        115.8752
2.268                  0.9865459         114.958
2.272                  0.9854352        114.0591
2.276                  0.9847957        113.1692
2.28                   0.9847142        112.2755
2.284                  0.9851849        111.3631
2.288                  0.9860988        110.4176
2.292                  0.9872505        109.4279
2.296                  0.9883653        108.3881
2.3                     0.989139        107.2988
2.304                  0.9892892        106.1681
2.308                  0.9886059        105.0101
2.312                  0.9869939        103.8431
2.316                  0.9845023        102.6873
2.32                   0.9813291        101.5607
2.324                   0.977804        100.4759
2.328                  0.9743425        99.43687
2.332                  0.9713797        98.43656
2.336                  0.9692917        97.45676
2.34                   0.9683168        96.46966
2.344                  0.9684945         95.4417
2.348                  0.9696356         94.3391
2.352                   0.971333        93.13363