! TOUCHSTONE file generated by CST MICROWAVE STUDIO
! Date and time: Tue Jun  7 19:07:22 2022
! Project name: AppElm_antenne_patch_FR4.cst
! Parameters = {L=45; W=70.2; e=0.035; h=1.6; lambda=0.190476; ls=120; w0=1.6; w1=0.533333; ws=120; y0=20; y1=23.8095}
! Header version: 2018
! Port assignment regex: !\s*Touchstone port\s*([0-9]+)\s*=\s*(CST MWS port|CST DS port)\s*([0-9]+|Zmin|Zmax)\s*\(\"(.*)\"\)(\s*mode\s*([0-9]+))?.*
! Touchstone port assignment:
! Touchstone port 1 = CST MWS port 1 ("")
# GHz S MA R 50
0                      0.9740052              -0
0.004                  0.9754931        -11.5469
0.008                  0.9797483       -22.95762
0.012                  0.9861808       -34.10623
0.016                  0.9939183       -44.88479
0.02                    1.001944       -55.20706
0.024                   1.009245       -65.00844
0.028                   1.014947       -74.24326
0.032                    1.01842       -82.88135
0.036                   1.019345       -90.90468
0.04                    1.017739        -98.3056
0.044                   1.013945       -105.0864
0.048                   1.008577       -111.2606
0.052                   1.002441       -116.8544
0.056                   0.996421        -121.909
0.06                   0.9913557       -126.4806
0.064                  0.9879147       -130.6388
0.068                   0.986501       -134.4617
0.072                   0.987195       -138.0288
0.076                  0.9897546       -141.4131
0.08                   0.9936699       -144.6737
0.084                  0.9982581       -147.8513
0.088                   1.002782       -150.9669
0.092                   1.006561       -154.0233
0.096                   1.009072       -157.0087
0.1                     1.010014        -159.902
0.104                   1.009335       -162.6781
0.108                   1.007231        -165.313
0.112                   1.004104       -167.7889
0.116                   1.000498       -170.0978
0.12                   0.9970071       -172.2438
0.124                  0.9941868       -174.2439
0.128                  0.9924611        -176.126
0.132                  0.9920597        -177.925
0.136                  0.9929858       -179.6779
0.14                    0.995024        178.5824
0.144                  0.9977875        176.8315
0.148                    1.00079        175.0563
0.152                   1.003529        173.2564
0.156                   1.005571        171.4421
0.16                    1.006614        169.6322
0.164                    1.00653        167.8498
0.168                   1.005375        166.1185
0.172                   1.003379        164.4584
0.176                     1.0009        162.8829
0.18                   0.9983649         161.396
0.184                  0.9961982        159.9918
0.188                  0.9947503        158.6552
0.192                  0.9942412        157.3643
0.196                  0.9947255        156.0941
0.2                    0.9960875        154.8208
0.204                  0.9980674        153.5258
0.208                    1.00031        152.1985
0.212                   1.002429        150.8377
0.216                   1.004071        149.4508
0.22                    1.004977        148.0522
0.224                   1.005016        146.6608
0.228                   1.004205        145.2965
0.232                   1.002704        143.9768
0.236                   1.000781        142.7142
0.24                   0.9987741        141.5138
0.244                  0.9970253        140.3727
0.248                  0.9958278        139.2802
0.252                  0.9953737        138.2198
0.256                  0.9957234        137.1719
0.26                   0.9967973        136.1174
0.264                  0.9983932         135.041
0.268                   1.000224        133.9338
0.272                   1.001972        132.7942
0.276                   1.003339        131.6284
0.28                    1.004102        130.4483
0.284                   1.004142        129.2698
0.288                   1.003468        128.1101
0.292                   1.002209        126.9844
0.296                    1.00059        125.9036
0.3                    0.9988965        124.8727
0.304                  0.9974208        123.8896
0.308                  0.9964152        122.9452
0.312                   0.996046        122.0258
0.316                  0.9963668        121.1146
0.32                   0.9973094        120.1954
0.324                  0.9986989        119.2551
0.328                   1.000287        118.2859
0.332                   1.001793        117.2868
0.336                   1.002961        116.2632
0.34                    1.003593        115.2259
0.344                   1.003589         114.189
0.348                   1.002959        113.1677
0.352                   1.001821        112.1756
0.356                   1.000377        111.2223
0.36                    0.998883         110.312
0.364                  0.9975997        109.4425
0.368                   0.996749        108.6056
0.372                   0.996475        107.7886
0.376                  0.9968186        106.9767
0.38                   0.9977121        106.1554
0.384                  0.9989919        105.3131
0.388                   1.000429        104.4433
0.392                   1.001771        103.5456
0.396                   1.002784        102.6252
0.4                     1.003297        101.6925
0.404                   1.003225        100.7606
0.408                   1.002587        99.84347
0.412                     1.0015        98.95328
0.416                   1.000156        98.09855
0.42                    0.998794         97.2825
0.424                  0.9976529        96.50261
0.428                  0.9969317        95.75075
0.432                   0.996754        95.01491
0.436                  0.9971469        94.28115
0.44                   0.9980353        93.53624
0.444                   0.999258        92.76993
0.448                   1.000596        91.97684
0.452                   1.001813        91.15719
0.456                   1.002695        90.31675
0.46                    1.003091         89.4656
0.464                   1.002935        88.61641
0.468                   1.002256        87.78223
0.472                   1.001178        86.97427
0.476                  0.9998913        86.19991
0.48                   0.9986243        85.46143
0.484                  0.9976011        84.75555
0.488                  0.9970016        84.07393
0.492                  0.9969305        83.40468
0.496                  0.9973975        82.73445
0.5                    0.9983163        82.05093
0.504                  0.9995214        81.34501
0.508                   1.000798        80.61239
0.512                   1.001918        79.85424
0.516                   1.002686        79.07687
0.52                    1.002968        78.29062
0.524                   1.002716         77.5079
0.528                   1.001977        76.74121
0.532                   1.000881        76.00084
0.536                  0.9996246        75.29312
0.54                   0.9984303        74.61928
0.544                  0.9975103        73.97516
0.548                  0.9970284        73.35187
0.552                   0.997069         72.7374
0.556                  0.9976233        72.11878
0.56                   0.9985904        71.48444
0.564                  0.9997959        70.82634
0.568                   1.001024        70.14131
0.572                   1.002056        69.43159
0.576                   1.002708        68.70431
0.58                    1.002866         67.9702
0.584                   1.002501        67.24169
0.588                   1.001678        66.53082
0.592                   1.000543        65.84702
0.596                  0.9992975        65.19556
0.6                    0.9981628        64.57647
0.604                  0.9973418        63.98454
0.608                  0.9969813        63.41012
0.612                  0.9971455        62.84089
0.616                  0.9978046        62.26407
0.62                   0.9988395        61.66879
0.624                   1.000064        61.04805
0.628                   1.001259        60.39993
0.632                   1.002211        59.72785
0.636                    1.00275         59.0399
0.64                    1.002781        58.34742
0.644                   1.002296        57.66295
0.648                   1.001381         56.9981
0.652                   1.000199         56.3615
0.656                  0.9989607        55.75722
0.66                   0.9978871        55.18403
0.664                  0.9971719        54.63544
0.668                  0.9969445        54.10094
0.672                  0.9972468        53.56775
0.676                  0.9980249        53.02326
0.68                   0.9991392        52.45731
0.684                   1.000389        51.86404
0.688                   1.001551        51.24287
0.692                   1.002416        50.59861
0.696                   1.002829        49.94046
0.7                     1.002713        49.28046
0.704                   1.002089        48.63134
0.708                   1.001064        48.00432
0.712                  0.9998207        47.40711
0.716                  0.9985803        46.84251
0.72                   0.9975656        46.30779
0.724                    0.99696        45.79514
0.728                  0.9968743        45.29293
0.732                  0.9973251        44.78791
0.736                  0.9982323        44.26762
0.74                   0.9994331        43.72265
0.744                   1.000711        43.14839
0.748                   1.001836         42.5458
0.752                   1.002606        41.92115
0.756                    1.00288        41.28493
0.76                    1.002607        40.64993
0.764                   1.001832        40.02907
0.768                   1.000691         39.4331
0.772                  0.9993873        38.86873
0.776                  0.9981533        38.33727
0.78                   0.9972126        37.83436
0.784                   0.996737        37.35061
0.788                  0.9968153        36.87326
0.792                  0.9974359        36.38852
0.796                  0.9984889        35.88413
0.8                    0.9997854         35.3516
0.804                   1.001092        34.78777
0.808                   1.002173        34.19527
0.812                   1.002832        33.58209
0.816                   1.002947        32.96008
0.82                    1.002494        32.34288
0.824                   1.001549        31.74359
0.828                   1.000278        31.17242
0.832                  0.9989059        30.63485
0.836                  0.9976791        30.13055
0.84                   0.9968204        29.65328
0.844                  0.9964874        29.19193
0.848                  0.9967437        28.73253
0.852                  0.9975459        28.26076
0.856                  0.9987507        27.76467
0.86                    1.000141        27.23685
0.864                   1.001466        26.67578
0.868                   1.002485        26.08603
0.872                    1.00301        25.47744
0.876                   1.002943        24.86334
0.88                    1.002289        24.25824
0.884                   1.001159        23.67531
0.888                  0.9997529        23.12407
0.892                  0.9983199        22.60853
0.896                  0.9971193        22.12642
0.9                     0.996371        21.66938
0.904                   0.996215         21.2244
0.908                  0.9966847        20.77615
0.912                  0.9976997        20.30987
0.916                  0.9990793        19.81406
0.92                    1.000576        19.28266
0.924                   1.001918        18.71605
0.928                   1.002863        18.12102
0.932                   1.003235        17.50944
0.936                   1.002962        16.89628
0.94                    1.002085        16.29694
0.944                   1.000755        15.72459
0.948                  0.9992057        15.18781
0.952                  0.9977157        14.68892
0.956                  0.9965555        14.22338
0.96                   0.9959397        13.78045
0.964                  0.9959859        13.34502
0.968                  0.9966922         12.9004
0.972                  0.9979353        12.43146
0.976                  0.9994931         11.9274
0.98                    1.001084        11.38377
0.984                    1.00242        10.80326
0.988                   1.003253        10.19512
0.992                   1.003428         9.57355
0.996                   1.002903        8.955245
1                       1.001762        8.356481
1.004                   1.000201        7.790281
1.008                  0.9984959        7.264019
1.012                   0.996953         6.77791
1.016                  0.9958546        6.324746
1.02                   0.9954064        5.891007
1.024                  0.9956977        5.459249
1.028                  0.9966839        5.011331
1.032                  0.9981919        4.531824
1.036                   0.999952        4.010901
1.04                    1.001646        3.446122
1.044                   1.002966        2.842826
1.048                   1.003666        2.213152
1.052                   1.003612        1.573897
1.056                     1.0028       0.9436412
1.06                    1.001365       0.3395374
1.064                  0.9995557      -0.2257244
1.068                  0.9976928       -0.746317
1.072                  0.9961142       -1.224579
1.076                  0.9951117       -1.670879
1.08                   0.9948773        -2.10193
1.084                  0.9954645       -2.537791
1.088                  0.9967763       -2.998106
1.092                  0.9985813       -3.498389
1.096                   1.000555       -4.047122
1.1                      1.00234       -4.644219
1.104                   1.003606       -5.281175
1.108                   1.004114       -5.942392
1.112                   1.003758       -6.608117
1.116                   1.002583       -7.257639
1.12                    1.000784        -7.87293
1.124                  0.9986725        -8.44183
1.128                  0.9966228       -8.960504
1.132                  0.9950077       -9.434492
1.136                  0.9941287       -9.878009
1.14                   0.9941579        -10.3116
1.144                  0.9951034       -10.75838
1.148                  0.9968043       -11.23963
1.152                  0.9989589       -11.77082
1.156                   1.001179       -12.35865
1.16                    1.003058       -12.99993
1.164                   1.004248        -13.6822
1.168                   1.004517       -14.38591
1.172                   1.003796       -15.08774
1.176                   1.002192       -15.76455
1.18                   0.9999723       -16.39737
1.184                  0.9975244       -16.97493
1.188                  0.9952868       -17.49601
1.192                  0.9936722       -17.97018
1.196                  0.9929894       -18.41649
1.2                    0.9933824       -18.86019
1.204                   0.994799       -19.32806
1.208                  0.9969971       -19.84321
1.212                  0.9995865       -20.42075
1.216                   1.002099       -21.06496
1.22                    1.004073       -21.76861
1.224                   1.005135       -22.51427
1.228                   1.005069       -23.27732
1.232                   1.003855       -24.03002
1.236                   1.001675       -24.74621
1.24                   0.9988952       -25.40577
1.244                  0.9959979       -25.99856
1.248                  0.9935041        -26.5268
1.252                  0.9918773       -27.00535
1.256                  0.9914345       -27.45959
1.26                   0.9922821       -27.92089
1.264                  0.9942887       -28.42068
1.268                  0.9971055       -28.98438
1.272                   1.000227       -29.62653
1.276                   1.003084       -30.34813
1.28                     1.00514       -31.13663
1.284                   1.005995       -31.96811
1.288                    1.00545       -32.81131
1.292                   1.003552       -33.63268
1.296                   1.000591       -34.40198
1.3                    0.9970587       -35.09758
1.304                  0.9935713       -35.71094
1.308                  0.9907621       -36.24907
1.312                  0.9891643       -36.73434
1.316                  0.9891058       -37.20107
1.32                    0.990638       -37.68935
1.324                  0.9935167       -38.23727
1.328                  0.9972403       -38.87341
1.332                    1.00114       -39.61147
1.336                   1.004497       -40.44784
1.34                    1.006671       -41.36246
1.344                   1.007215       -42.32215
1.348                   1.005953       -43.28611
1.352                   1.003025       -44.21214
1.356                  0.9988695       -45.06365
1.36                   0.9941698       -45.81626
1.364                  0.9897414        -46.4633
1.368                  0.9863926       -47.01865
1.372                  0.9847705         -47.516
1.376                  0.9852271       -48.00367
1.38                   0.9877358        -48.5356
1.384                  0.9918814       -49.16057
1.388                   0.996926       -49.91258
1.392                   1.001941       -50.80445
1.396                   1.005969       -51.82576
1.4                     1.008192         -52.945
1.404                   1.008076       -54.11461
1.408                   1.005467        -55.2782
1.412                    1.00064       -56.37882
1.416                  0.9942776       -57.36805
1.42                   0.9873846       -58.21524
1.424                   0.981135       -58.91533
1.428                  0.9766689       -59.49357
1.432                  0.9748684       -60.00431
1.436                  0.9761615       -60.52294
1.44                    0.980404       -61.13132
1.444                  0.9868752       -61.90112
1.448                  0.9943943       -62.87941
1.452                   1.001522        -64.0803
1.456                   1.006808        -65.4836
1.46                    1.009031       -67.03892
1.464                   1.007401       -68.67325
1.468                   1.001712       -70.30044
1.472                   0.992412       -71.83215
1.476                  0.9806043       -73.19087
1.48                   0.9679406       -74.32499
1.484                  0.9564045       -75.22525
1.488                  0.9479784       -75.93794
1.492                  0.9442315       -76.56859
1.496                  0.9459145        -77.2698
1.5                    0.9526832       -78.21311
1.504                  0.9630434       -79.55401
1.508                   0.974534       -81.40338
1.512                  0.9840704       -83.81424
1.516                  0.9883405       -86.78364
1.52                   0.9841645       -90.26309
1.524                  0.9687755       -94.17004
1.528                  0.9400192       -98.39539
1.532                  0.8964874        -102.804
1.536                  0.8376093       -107.2254
1.54                   0.7637305       -111.4299
1.544                   0.676223        -115.076
1.548                  0.5777273       -117.5975
1.552                  0.4727943       -117.9495
1.556                  0.3697076       -114.0477
1.56                    0.285407       -102.0589
1.564                  0.2514446       -79.80424
1.568                  0.2895167       -58.01809
1.572                  0.3759079       -46.66391
1.576                  0.4797934       -43.15353
1.58                   0.5849228       -43.74972
1.584                  0.6832653        -46.4522
1.588                  0.7703435        -50.2549
1.592                  0.8435279       -54.60874
1.596                  0.9014408       -59.17921
1.6                    0.9437361       -63.73838
1.604                  0.9710019       -68.11464
1.608                  0.9846931       -72.16954
1.612                  0.9870488       -75.78926
1.616                   0.980963       -78.88618
1.62                   0.9697825       -81.40796
1.624                  0.9570105       -83.35135
1.628                  0.9459154       -84.77512
1.632                  0.9390888       -85.80287
1.636                  0.9380556       -86.60815
1.64                   0.9430682       -87.38115
1.644                  0.9531737       -88.28809
1.648                  0.9665351        -89.4399
1.652                  0.9808914       -90.87999
1.656                  0.9940156       -92.59024
1.66                    1.004078       -94.50704
1.664                   1.009878       -96.53954
1.668                   1.010954       -98.58603
1.672                   1.007594       -100.5476
1.676                   1.000745       -102.3398
1.68                   0.9918646       -103.9038
1.684                  0.9826839       -105.2158
1.688                  0.9749301        -106.293
1.692                  0.9700264       -107.1938
1.696                  0.9688344       -108.0074
1.7                    0.9715023       -108.8365
1.704                  0.9774618       -109.7753
1.708                  0.9855752       -110.8906
1.712                  0.9943842       -112.2117
1.716                   1.002392       -113.7294
1.72                    1.008318       -115.4025
1.724                    1.01129       -117.1679
1.728                   1.010957       -118.9514
1.732                   1.007517        -120.679
1.736                   1.001676       -122.2867
1.74                    0.994532       -123.7307
1.744                  0.9873935       -124.9943
1.748                  0.9815629       -126.0931
1.752                  0.9781001       -127.0739
1.756                  0.9776253       -128.0065
1.76                   0.9802001         -128.97
1.764                  0.9853259       -130.0367
1.768                  0.9920537       -131.2573
1.772                  0.9991776        -132.653
1.776                   1.005459       -134.2142
1.78                    1.009841       -135.9046
1.784                   1.011611        -137.669
1.788                   1.010505       -139.4426
1.792                   1.006744       -141.1602
1.796                   1.000992       -142.7663
1.8                    0.9942608       -144.2234
1.804                  0.9877439       -145.5196
1.808                   0.982615       -146.6723
1.812                  0.9798136       -147.7274
1.816                  0.9798621       -148.7512
1.82                   0.9827593       -149.8178
1.824                  0.9879815       -150.9936
1.828                  0.9945854       -152.3245
1.832                   1.001392       -153.8279
1.836                     1.0072       -155.4918
1.84                     1.01099       -157.2785
1.844                   1.012088        -159.132
1.848                    1.01027       -160.9866
1.852                   1.005799       -162.7765
1.856                   0.999392       -164.4456
1.86                   0.9921219       -165.9565
1.864                  0.9852503       -167.2987
1.868                  0.9800136       -168.4935
1.872                  0.9773934       -169.5921
1.876                  0.9779169       -170.6685
1.88                    0.981539       -171.8043
1.884                  0.9876393       -173.0721
1.888                  0.9951378       -174.5213
1.892                   1.002695       -176.1696
1.896                   1.008948       -178.0015
1.9                     1.012741       -179.9729
1.904                   1.013308        177.9808
1.908                   1.010396        175.9357
1.912                   1.004319        173.9693
1.916                  0.9959371        172.1489
1.92                   0.9865535        170.5208
1.924                  0.9777274        169.0989
1.928                  0.9710184        167.8575
1.932                  0.9676921        166.7304
1.936                  0.9684482          165.62
1.94                   0.9732447        164.4162
1.944                  0.9812742        163.0195
1.948                  0.9911005         161.361
1.952                   1.000917        159.4139
1.956                   1.008853        157.1951
1.96                    1.013276        154.7594
1.964                   1.013037        152.1896
1.968                   1.007649        149.5866
1.972                  0.9973933        147.0574
1.976                  0.9833444        144.7022
1.98                   0.9672936        142.5987
1.984                  0.9515547        140.7827
1.988                  0.9386301        139.2279
1.992                  0.9307462         137.833
1.996                  0.9293392        136.4269
2                      0.9346334        134.7954
2.004                  0.9454671        132.7258
2.008                  0.9594254        130.0471
2.012                  0.9732217        126.6526
2.016                  0.9831716        122.4999
2.02                   0.9856362        117.5945
2.024                  0.9773605        111.9691
2.028                  0.9557046        105.6643
2.032                  0.9187849        98.71172
2.036                  0.8655538        91.11913
2.04                   0.7958433        82.85018
2.044                     0.7104        73.79059
2.048                  0.6109579        63.67573
2.052                  0.5004736        51.91421
2.056                  0.3839392        37.09678
2.06                   0.2715064        15.49135
2.064                  0.1907422        -21.9035
2.068                  0.1972264       -72.88524
2.072                  0.2842943       -107.6436
2.076                  0.3972993       -127.9786
2.08                   0.5121699       -142.2195
2.084                  0.6198259       -153.6464
2.088                  0.7156838       -163.5119
2.092                  0.7970426       -172.3467
2.096                  0.8623922        179.6128
2.1                    0.9112124         172.268
2.104                  0.9439098        165.5927
2.108                  0.9617812        159.6018
2.112                  0.9669646        154.3313
2.116                  0.9623428        149.8224
2.12                   0.9513762        146.1018
2.124                  0.9378321        143.1611
2.128                   0.925393        140.9339
2.132                  0.9171697        139.2842
2.136                  0.9152163        138.0128
2.14                   0.9202023        136.8907
2.144                  0.9313843        135.7061
2.148                  0.9468993        134.3068
2.152                  0.9642621        132.6193
2.156                  0.9808995        130.6453
2.16                   0.9945854        128.4433
2.164                   1.003732        126.1071
2.168                   1.007542        123.7466
2.172                   1.006039        121.4729
2.176                   1.000018        119.3859
2.18                   0.9909047        117.5629
2.184                  0.9805407        116.0472
2.188                  0.9709055        114.8399
2.192                  0.9637887        113.8947
2.196                   0.960476        113.1241
2.2                    0.9615162        112.4152
2.204                  0.9666378        111.6532
2.208                  0.9748434        110.7462
2.212                  0.9846462        109.6403
2.216                  0.9943786        108.3261
2.22                    1.002492         106.833
2.224                   1.007797        105.2198
2.228                   1.009622        103.5623
2.232                   1.007881        101.9415
2.236                   1.003059        100.4323
2.24                   0.9961278        99.09387
2.244                  0.9883865        97.96009
2.248                  0.9812492        97.03305
2.252                  0.9760027        96.28079
2.256                  0.9735747        95.64159
2.26                   0.9743625        95.03564
2.264                  0.9781671        94.38137
2.268                  0.9842512        93.61201
2.272                  0.9915031        92.68789
2.276                  0.9986575        91.60118
2.28                    1.004524        90.37403
2.284                   1.008182        89.05196
2.288                   1.009112        87.69491
2.292                    1.00726        86.36753
2.296                   1.003035        85.12983
2.3                    0.9972329        84.02838
2.304                  0.9909096        83.08863
2.308                  0.9852012        82.30981
2.312                  0.9811268        81.66383
2.316                  0.9794015        81.09939
2.32                   0.9803044        80.55174
2.324                  0.9836308        79.95568
2.328                  0.9887441        79.25862
2.332                  0.9947089        78.43009
2.336                   1.000473        77.46565
2.34                    1.005056        76.38557
2.344                   1.007712        75.22953
2.348                    1.00804        74.04911
2.352                   1.006039        72.89952