! TOUCHSTONE file generated by CST MICROWAVE STUDIO
! Date and time: Tue Jun  7 19:07:21 2022
! Project name: AppElm_antenne_patch_FR4.cst
! Parameters = {L=45; W=67.275; e=0.035; h=1.6; lambda=0.190476; ls=120; w0=1.6; w1=0.533333; ws=120; y0=20; y1=23.8095}
! Header version: 2018
! Port assignment regex: !\s*Touchstone port\s*([0-9]+)\s*=\s*(CST MWS port|CST DS port)\s*([0-9]+|Zmin|Zmax)\s*\(\"(.*)\"\)(\s*mode\s*([0-9]+))?.*
! Touchstone port assignment:
! Touchstone port 1 = CST MWS port 1 ("")
# GHz S MA R 50
0                      0.9804235              -0
0.004                  0.9816093       -11.18236
0.008                  0.9849953       -22.24048
0.012                   0.990096       -33.05845
0.016                  0.9961936       -43.53518
0.02                    1.002452       -53.58788
0.024                   1.008044        -63.1526
0.028                   1.012264       -72.18268
0.032                   1.014619       -80.64637
0.036                   1.014888       -88.52462
0.04                    1.013136       -95.80975
0.044                   1.009704       -102.5054
0.048                   1.005151        -108.627
0.052                   1.000177       -114.2035
0.056                    0.99552       -119.2775
0.06                   0.9918463       -123.9046
0.064                  0.9896489        -128.151
0.068                   0.989174       -132.0877
0.072                  0.9903902       -135.7844
0.076                  0.9930041       -139.3028
0.08                   0.9965204       -142.6909
0.084                   1.000334         -145.98
0.088                   1.003829       -149.1847
0.092                   1.006479       -152.3046
0.096                   1.007916       -155.3281
0.1                     1.007984       -158.2371
0.104                   1.006747       -161.0123
0.108                    1.00447       -163.6369
0.112                   1.001573       -166.1017
0.116                  0.9985593        -168.407
0.12                   0.9959319       -170.5643
0.124                   0.994112       -172.5954
0.128                  0.9933701       -174.5298
0.132                   0.993785       -176.4003
0.136                  0.9952369       -178.2381
0.14                   0.9974362        179.9315
0.144                  0.9999794         178.093
0.148                   1.002424        176.2415
0.152                   1.004363        174.3828
0.156                   1.005491         172.531
0.16                    1.005648        170.7053
0.164                   1.004844        168.9264
0.168                   1.003246         167.213
0.172                   1.001151        165.5781
0.176                  0.9989326        164.0268
0.18                   0.9969747        162.5553
0.184                  0.9956078        161.1511
0.188                  0.9950515        159.7952
0.192                  0.9953793         158.465
0.196                  0.9965088        157.1386
0.2                    0.9982197        155.7983
0.204                   1.000198        154.4333
0.208                   1.002093        153.0412
0.212                   1.003579        151.6281
0.216                    1.00441        150.2067
0.22                    1.004457        148.7938
0.224                   1.003729        147.4077
0.228                   1.002369        146.0646
0.232                   1.000625         144.776
0.236                  0.9988073        143.5466
0.24                    0.997234        142.3736
0.244                   0.996177        141.2469
0.248                  0.9958119        140.1509
0.252                  0.9961904         139.067
0.256                  0.9972316        137.9776
0.26                   0.9987391        136.8685
0.264                   1.000439        135.7316
0.268                    1.00203        134.5662
0.272                   1.003236        133.3784
0.276                   1.003851        132.1801
0.28                    1.003779        130.9869
0.284                   1.003041        129.8148
0.288                   1.001776        128.6781
0.292                   1.000212        127.5864
0.296                  0.9986276        126.5434
0.3                     0.997303        125.5459
0.304                  0.9964691        124.5841
0.308                  0.9962683        123.6438
0.312                   0.996728        122.7086
0.316                  0.9977587        121.7631
0.32                   0.9991702        120.7954
0.324                   1.000707        119.7995
0.328                   1.002097        118.7758
0.332                   1.003096         117.731
0.336                   1.003533        116.6769
0.34                    1.003336         115.628
0.344                   1.002545        114.5991
0.348                   1.001305        113.6029
0.352                  0.9998385        112.6475
0.356                  0.9984062        111.7351
0.36                   0.9972628        110.8617
0.364                  0.9966101        110.0173
0.368                  0.9965615        109.1882
0.372                  0.9971214        108.3591
0.376                  0.9981855        107.5161
0.38                   0.9995604        106.6491
0.384                      1.001        105.7535
0.388                   1.002247        104.8313
0.392                   1.003085        103.8897
0.396                   1.003366        102.9407
0.4                     1.003045        101.9984
0.404                   1.002183        101.0767
0.408                   1.000933         100.187
0.412                  0.9995195        99.33585
0.416                  0.9981946        98.52429
0.42                   0.9971941        97.74709
0.424                   0.996696         96.9939
0.428                  0.9967875        96.25098
0.432                  0.9974495        95.50376
0.436                  0.9985607        94.73949
0.44                   0.9999202        93.94956
0.444                   1.001284        93.13092
0.448                   1.002409         92.2866
0.452                   1.003097        91.42499
0.456                   1.003226        90.55829
0.46                    1.002775        89.70043
0.464                   1.001825        88.86458
0.468                   1.000547         88.0609
0.472                  0.9991664        87.29473
0.476                  0.9979318        86.56555
0.48                   0.9970636        85.86702
0.484                  0.9967176        85.18801
0.488                   0.996955        84.51464
0.492                  0.9977324         83.8328
0.496                  0.9989089        83.13077
0.5                     1.000273         82.4013
0.504                    1.00158        81.64283
0.508                   1.002596        80.85975
0.512                   1.003142        80.06145
0.516                    1.00312        79.26065
0.52                    1.002534        78.47121
0.524                   1.001487        77.70566
0.528                   1.000167         76.9731
0.532                  0.9988069        76.27746
0.536                  0.9976515        75.61676
0.54                   0.9969077        74.98337
0.544                  0.9967095        74.36532
0.548                  0.9970921        73.74847
0.552                  0.9979864         73.1191
0.556                   0.999231        72.46643
0.56                    1.000602        71.78464
0.564                   1.001852        71.07365
0.568                   1.002759        70.33926
0.572                    1.00316        69.59197
0.576                   1.002983        68.84506
0.58                    1.002258        68.11232
0.584                   1.001113        67.40568
0.588                  0.9997512        66.73309
0.592                  0.9984165          66.097
0.596                  0.9973487        65.49387
0.6                    0.9967409        64.91469
0.604                  0.9967039        64.34656
0.608                  0.9972455        63.77506
0.612                  0.9982689        63.18685
0.616                  0.9995903        62.57221
0.62                    1.000972        61.92668
0.624                   1.002167        61.25191
0.628                   1.002961        60.55516
0.632                    1.00321        59.84806
0.636                   1.002868        59.14453
0.64                    1.001994        58.45834
0.644                   1.000743        57.80076
0.648                  0.9993349        57.17849
0.652                  0.9980231        56.59244
0.656                  0.9970433        56.03743
0.66                   0.9965739        55.50297
0.664                  0.9967007        54.97523
0.668                  0.9974029        54.43947
0.672                  0.9985547        53.88282
0.676                  0.9999494        53.29664
0.68                    1.001336        52.67804
0.684                   1.002466        52.03034
0.688                   1.003136        51.36239
0.692                   1.003223        50.68698
0.696                    1.00271         50.0186
0.7                     1.001686        49.37098
0.704                    1.00033        48.75458
0.708                  0.9988844        48.17481
0.712                  0.9976086        47.63083
0.716                  0.9967337         47.1157
0.72                     0.99642        46.61744
0.724                  0.9967269        46.12123
0.728                  0.9976017         45.6121
0.732                   0.998888        45.07776
0.736                   1.000355        44.51081
0.74                    1.001739        43.91005
0.744                   1.002791        43.28062
0.748                    1.00332        42.63301
0.752                   1.003228        41.98127
0.756                   1.002528        41.34045
0.76                    1.001339        40.72412
0.764                  0.9998713         40.1419
0.768                  0.9983855        39.59767
0.772                  0.9971487        39.08881
0.776                  0.9963851        38.60645
0.78                   0.9962357        38.13705
0.784                  0.9967306        37.66478
0.788                  0.9977831        37.17455
0.792                  0.9992051        36.65472
0.796                   1.000741        36.09925
0.8                     1.002115        35.50874
0.804                   1.003079        34.89028
0.808                   1.003457        34.25608
0.812                   1.003177        33.62137
0.816                   1.002284        33.00178
0.82                    1.000933        32.41059
0.824                  0.9993617         31.8564
0.828                  0.9978507        31.34146
0.832                  0.9966732        30.86114
0.836                  0.9960443        30.40457
0.84                   0.9960819        29.95658
0.844                  0.9967838         29.5004
0.848                  0.9980264        29.02088
0.852                  0.9995881        28.50721
0.856                   1.001188        27.95491
0.86                    1.002539        27.36661
0.864                   1.003395        26.75142
0.868                   1.003598        26.12339
0.872                   1.003106        25.49903
0.876                      1.002        24.89446
0.88                     1.00047         24.3226
0.884                   0.998787        23.79089
0.888                  0.9972509        23.29975
0.892                    0.99614        22.84235
0.896                  0.9956588        22.40567
0.9                    0.9958995        21.97279
0.904                  0.9968241        21.52602
0.908                  0.9982698        21.05019
0.912                   0.999979        20.53546
0.916                   1.001645        19.97908
0.92                    1.002968        19.38578
0.924                   1.003707        18.76693
0.928                   1.003725        18.13846
0.932                   1.003011        17.51817
0.936                   1.001685        16.92264
0.94                   0.9999761        16.36436
0.944                  0.9981873        15.84943
0.948                  0.9966395        15.37626
0.952                  0.9956148        14.93562
0.956                  0.9953042        14.51219
0.96                   0.9957707        14.08724
0.964                  0.9969367        13.64216
0.968                  0.9985966        13.16191
0.972                   1.000454        12.63777
0.976                   1.002176        12.06893
0.98                    1.003451        11.46253
0.984                   1.004044        10.83232
0.988                   1.003842         10.1963
0.992                   1.002869        9.573639
0.996                   1.001288        8.981414
1                      0.9993737        8.431571
1.004                   0.997463        7.928689
1.008                  0.9958996        7.468906
1.012                    0.99497        7.040336
1.016                  0.9948495        6.625061
1.02                   0.9955688         6.20236
1.024                  0.9970064        5.752578
1.028                  0.9989091        5.260808
1.032                   1.000938        4.719608
1.036                    1.00273        4.130288
1.04                    1.003959        3.502585
1.044                     1.0044         2.85291
1.048                   1.003963        2.201533
1.052                   1.002712        1.569166
1.056                   1.000857       0.9734249
1.06                   0.9987197       0.4256958
1.064                  0.9966785     -0.07109589
1.068                  0.9951014      -0.5233313
1.072                  0.9942792      -0.9458596
1.076                  0.9943704       -1.359477
1.08                   0.9953692       -1.787127
1.084                  0.9971049       -2.249599
1.088                  0.9992712       -2.761633
1.092                   1.001482       -3.329241
1.096                   1.003338       -3.948718
1.1                     1.004502        -4.60739
1.104                   1.004754       -5.285819
1.108                   1.004032        -5.96116
1.112                   1.002446       -6.610821
1.116                   1.000261       -7.216549
1.12                   0.9978537       -7.767526
1.124                  0.9956509       -8.262661
1.128                   0.994051       -8.711324
1.132                  0.9933523       -9.131806
1.136                  0.9936949       -9.548374
1.14                   0.9950321       -9.986715
1.144                  0.9971359        -10.4691
1.148                  0.9996371       -11.01024
1.152                   1.002091       -11.61463
1.156                   1.004058       -12.27587
1.16                    1.005177       -12.97788
1.164                   1.005234       -13.69768
1.168                   1.004196       -14.40919
1.172                   1.002223       -15.08755
1.176                  0.9996443       -15.71334
1.18                   0.9969039       -16.27618
1.184                  0.9944865       -16.77698
1.188                  0.9928317       -17.22835
1.192                  0.9922511        -17.6528
1.196                   0.992868       -18.07878
1.2                      0.99459       -18.53545
1.204                  0.9971223        -19.0471
1.208                    1.00002       -19.62865
1.212                   1.002767       -20.28298
1.216                   1.004866       -21.00061
1.22                    1.005929        -21.7614
1.224                   1.005741       -22.53799
1.228                   1.004301       -23.30018
1.232                   1.001829       -24.01995
1.236                  0.9987315       -24.67612
1.24                   0.9955402       -25.25847
1.244                  0.9928198       -25.77009
1.248                   0.991068       -26.22771
1.252                  0.9906223       -26.65919
1.256                  0.9915914       -27.09872
1.26                   0.9938287       -27.58036
1.264                  0.9969557       -28.13159
1.268                   1.000426       -28.76814
1.272                   1.003625       -29.49131
1.276                   1.005973       -30.28791
1.28                     1.00703       -31.13265
1.284                   1.006569       -31.99229
1.288                   1.004619       -32.83085
1.292                   1.001471        -33.6154
1.296                  0.9976341       -34.32157
1.3                    0.9937567       -34.93837
1.304                  0.9905214       -35.47102
1.308                  0.9885208       -35.94123
1.312                  0.9881444       -36.38412
1.316                  0.9894983       -36.84206
1.32                   0.9923756       -37.35666
1.324                  0.9962882       -37.96071
1.328                   1.000551       -38.67212
1.332                   1.004403       -39.49086
1.336                   1.007138       -40.39929
1.34                    1.008224       -41.36526
1.344                   1.007399       -42.34718
1.348                   1.004718       -43.30037
1.352                   1.000559       -44.18388
1.356                  0.9955743       -44.96746
1.36                   0.9905922       -45.63753
1.364                  0.9864848       -46.20131
1.368                  0.9840106       -46.68738
1.372                  0.9836664       -47.14201
1.376                  0.9855799       -47.62114
1.38                   0.9894703       -48.17958
1.384                  0.9946874       -48.86034
1.388                   1.000323        -49.6866
1.392                   1.005368       -50.65794
1.396                   1.008882       -51.75094
1.4                     1.010152       -52.92329
1.404                    1.00881       -54.12005
1.408                   1.004909       -55.28146
1.412                  0.9989355       -56.35145
1.416                  0.9917562       -57.28673
1.42                   0.9845072       -58.06558
1.424                  0.9784168       -58.69472
1.428                  0.9745894       -59.21209
1.432                  0.9737863       -59.68316
1.436                  0.9762522       -60.19004
1.44                   0.9816364       -60.81558
1.444                  0.9890316       -61.62676
1.448                  0.9971246       -62.66205
1.452                   1.004416       -63.92558
1.456                   1.009464       -65.38795
1.46                    1.011113       -66.99157
1.464                   1.008679       -68.65871
1.468                   1.002072       -70.30075
1.472                  0.9918608       -71.82892
1.476                   0.979251       -73.16674
1.48                   0.9659754       -74.26509
1.484                  0.9540717       -75.11805
1.488                  0.9455509       -75.77607
1.492                  0.9419912       -76.34893
1.496                   0.944145       -76.99303
1.5                    0.9516733        -77.8828
1.504                  0.9631013       -79.17575
1.508                  0.9760043       -80.98436
1.512                  0.9873454       -83.36375
1.516                  0.9938595       -86.31423
1.52                   0.9923979       -89.79253
1.524                  0.9801924       -93.72406
1.528                  0.9550405       -98.01167
1.532                  0.9154238       -102.5382
1.536                  0.8605833       -107.1616
1.54                    0.790571       -111.6985
1.544                  0.7063093       -115.8881
1.548                  0.6097152       -119.3134
1.552                  0.5040404       -121.2187
1.556                   0.394899       -120.0562
1.56                   0.2935741       -112.4048
1.564                  0.2261706       -92.43984
1.568                  0.2325784       -64.18264
1.572                   0.307803       -46.40173
1.576                  0.4115378       -40.11216
1.58                   0.5207388       -39.61864
1.584                  0.6253855       -41.88676
1.588                  0.7203367       -45.53931
1.592                  0.8025676       -49.89206
1.596                  0.8703048       -54.56005
1.6                    0.9227381       -59.29784
1.604                  0.9599129       -63.92959
1.608                  0.9826783       -68.31673
1.612                  0.9926375       -72.34352
1.616                  0.9920742       -75.91296
1.62                   0.9838348       -78.95039
1.624                  0.9711418       -81.41321
1.628                  0.9573234       -83.30433
1.632                  0.9454598       -84.68414
1.636                  0.9379855       -85.67331
1.64                   0.9363404       -86.43914
1.644                  0.9407834       -87.16524
1.648                  0.9504472       -88.01418
1.652                   0.963622         -89.098
1.656                  0.9781665       -90.46584
1.66                   0.9919247       -92.10833
1.664                   1.003061        -93.9718
1.668                   1.010285        -95.9748
1.672                   1.012962       -98.02309
1.676                   1.011137       -100.0219
1.68                    1.005487       -101.8864
1.684                  0.9972005       -103.5508
1.688                  0.9878077       -104.9769
1.692                  0.9789543       -106.1615
1.696                  0.9721486       -107.1388
1.7                    0.9685146       -107.9768
1.704                   0.968604       -108.7657
1.708                   0.972315       -109.6002
1.712                  0.9789393       -110.5612
1.716                  0.9873232       -111.7016
1.72                   0.9960947         -113.04
1.724                   1.003902       -114.5618
1.728                   1.009617        -116.226
1.732                   1.012489       -117.9735
1.736                   1.012219       -119.7369
1.74                    1.008991       -121.4491
1.744                   1.003421       -123.0521
1.748                  0.9964707       -124.5042
1.752                  0.9893016       -125.7867
1.756                  0.9830971       -126.9078
1.76                   0.9788732       -127.9031
1.764                  0.9773067       -128.8299
1.768                  0.9786193       -129.7576
1.772                  0.9825484       -130.7541
1.776                  0.9884048       -131.8732
1.78                   0.9952092       -133.1462
1.784                   1.001866       -134.5783
1.788                   1.007344       -136.1499
1.792                   1.010828        -137.822
1.796                   1.011828       -139.5428
1.8                     1.010243       -141.2554
1.804                   1.006362       -142.9054
1.808                   1.000824       -144.4476
1.812                   0.994524       -145.8533
1.816                  0.9884801       -147.1147
1.82                    0.983677        -148.248
1.824                  0.9809013       -149.2918
1.828                  0.9806067       -150.3009
1.832                  0.9828328       -151.3367
1.836                  0.9872014        -152.456
1.84                   0.9929882       -153.7002
1.844                  0.9992531       -155.0896
1.848                   1.004999       -156.6208
1.852                   1.009328       -158.2693
1.856                   1.011575       -159.9944
1.86                    1.011397       -161.7449
1.864                    1.00882       -163.4671
1.868                   1.004237       -165.1108
1.872                  0.9983529       -166.6372
1.876                  0.9920887       -168.0245
1.88                   0.9864451       -169.2724
1.884                  0.9823441       -170.4045
1.888                  0.9804707       -171.4649
1.892                    0.98115       -172.5118
1.896                  0.9842842       -173.6066
1.9                    0.9893674       -174.8027
1.904                  0.9955747        -176.136
1.908                   1.001903       -177.6196
1.912                   1.007337        -179.243
1.916                      1.011        179.0252
1.92                    1.012289        177.2319
1.924                   1.010957        175.4325
1.928                   1.007151        173.6841
1.932                   1.001403        172.0378
1.936                  0.9945621        170.5313
1.94                   0.9876846        169.1821
1.944                  0.9818732        167.9826
1.948                   0.978098        166.8989
1.952                  0.9770229        165.8747
1.956                  0.9788744        164.8407
1.96                   0.9833894        163.7273
1.964                  0.9898518        162.4775
1.968                   0.997215        161.0574
1.972                   1.004275        159.4602
1.976                   1.009863        157.7066
1.98                    1.013019        155.8397
1.984                   1.013135         153.919
1.988                   1.010046        152.0123
1.992                   1.004065        150.1878
1.996                  0.9959694        148.5051
2                      0.9869092        147.0056
2.004                  0.9782624        145.7038
2.008                  0.9714277        144.5805
2.012                   0.967583        143.5816
2.016                   0.967455        142.6243
2.02                   0.9711557        141.6111
2.024                  0.9781298        140.4491
2.028                  0.9872379        139.0677
2.032                  0.9969425        137.4304
2.036                   1.005557        135.5388
2.04                    1.011503        133.4298
2.044                   1.013533        131.1686
2.048                   1.010911        128.8401
2.052                    1.00353          126.54
2.056                  0.9919702        124.3645
2.06                   0.9774857        122.3987
2.064                   0.961904         120.702
2.068                  0.9474202        119.2902
2.072                  0.9362697        118.1207
2.076                  0.9303114        117.0844
2.08                   0.9305957        116.0158
2.084                  0.9370445        114.7209
2.088                  0.9483564        113.0159
2.092                  0.9621661        110.7602
2.096                  0.9753883         107.873
2.1                    0.9846236        104.3315
2.104                  0.9865276        100.1572
2.108                  0.9780924        95.40028
2.112                  0.9568396        90.12534
2.116                  0.9209343        84.40189
2.12                   0.8692465        78.29874
2.124                  0.8013694        71.88163
2.128                  0.7176078        65.21322
2.132                  0.6189415        58.35569
2.136                  0.5069674        51.37786
2.14                   0.3838243        44.37645
2.144                  0.2521049        37.56543
2.148                  0.1147936        32.01012
2.152                 0.02623099       -173.6951
2.156                  0.1647003       -168.5246
2.16                   0.2999052       -174.8147
2.164                  0.4281342        178.3069
2.168                  0.5465672        171.3606
2.172                  0.6527972        164.4976
2.176                  0.7449157        157.8013
2.18                   0.8215987        151.3385
2.184                  0.8821788        145.1729
2.188                   0.926695          139.37
2.192                  0.9559209        133.9987
2.196                  0.9713627        129.1294
2.2                    0.9752194        124.8301
2.204                  0.9702897        121.1584
2.208                  0.9598118        118.1489
2.212                  0.9472099        115.7974
2.216                    0.93575        114.0457
2.22                   0.9281293        112.7746
2.224                  0.9260901        111.8134
2.228                  0.9301755         110.968
2.232                   0.939729        110.0597
2.236                  0.9531481        108.9587
2.24                   0.9682964        107.6004
2.244                  0.9829481        105.9835
2.248                  0.9951584        104.1558
2.252                   1.003517        102.1969
2.256                   1.007283        100.2018
2.26                    1.006425        98.26733
2.264                   1.001572        96.48123
2.268                  0.9938995        94.91196
2.272                  0.9849486        93.59977
2.276                  0.9763948        92.54928
2.28                   0.9697799        91.72642
2.284                  0.9662543        91.06241
2.288                  0.9663803        90.46584
2.292                  0.9700501        89.84093
2.296                  0.9765383        89.10671
2.3                    0.9846754        88.21133
2.304                  0.9930869        87.13822
2.308                   1.000442        85.90447
2.312                   1.005663        84.55354
2.316                   1.008074        83.14583
2.32                    1.007474        81.74859
2.324                   1.004144        80.42646
2.328                  0.9987875        79.23262
2.332                  0.9924118        78.20125
2.336                  0.9861668        77.34156
2.34                   0.9811521        76.63548
2.344                  0.9782286        76.03982
2.348                  0.9778665        75.49391
2.352                  0.9800687        74.93145