! TOUCHSTONE file generated by CST MICROWAVE STUDIO
! Date and time: Tue Jun  7 19:07:19 2022
! Project name: AppElm_antenne_patch_FR4.cst
! Parameters = {L=45; W=61.425; e=0.035; h=1.6; lambda=0.190476; ls=120; w0=1.6; w1=0.533333; ws=120; y0=20; y1=23.8095}
! Header version: 2018
! Port assignment regex: !\s*Touchstone port\s*([0-9]+)\s*=\s*(CST MWS port|CST DS port)\s*([0-9]+|Zmin|Zmax)\s*\(\"(.*)\"\)(\s*mode\s*([0-9]+))?.*
! Touchstone port assignment:
! Touchstone port 1 = CST MWS port 1 ("")
# GHz S MA R 50
0                      0.9877275              -0
0.004                  0.9884944       -10.36936
0.008                  0.9906842       -20.63911
0.012                  0.9939824       -30.71501
0.016                  0.9979216       -40.51264
0.02                    1.001954        -49.9602
0.024                   1.005535       -58.99966
0.028                   1.008199       -67.58659
0.032                   1.009619        -75.6893
0.036                   1.009656       -83.28777
0.04                    1.008362       -90.37311
0.044                   1.005977        -96.9472
0.048                   1.002885       -103.0229
0.052                  0.9995617       -108.6242
0.056                   0.996501       -113.7859
0.06                   0.9941417       -118.5523
0.064                  0.9928012       -122.9745
0.068                   0.992629       -127.1067
0.072                  0.9935884       -131.0016
0.076                  0.9954691       -134.7062
0.08                   0.9979284       -138.2578
0.084                   1.000551       -141.6823
0.088                   1.002918       -144.9937
0.092                   1.004673       -148.1956
0.096                   1.005572       -151.2835
0.1                     1.005517       -154.2483
0.104                   1.004564       -157.0796
0.108                   1.002908        -159.769
0.112                   1.000849       -162.3132
0.116                  0.9987426       -164.7156
0.12                   0.9969372       -166.9871
0.124                  0.9957214       -169.1456
0.128                  0.9952761       -171.2139
0.132                  0.9956467       -173.2166
0.136                  0.9967408       -175.1772
0.14                   0.9983474       -177.1142
0.144                   1.000178       -179.0399
0.148                   1.001917        179.0418
0.152                   1.003276        177.1341
0.156                    1.00404        175.2463
0.16                      1.0041        173.3917
0.164                   1.003466        171.5845
0.168                   1.002266        169.8373
0.172                   1.000718        168.1587
0.176                  0.9990943        166.5517
0.18                   0.9976737        165.0125
0.184                  0.9966952        163.5313
0.188                  0.9963164        162.0937
0.192                  0.9965884        160.6828
0.196                  0.9974487        159.2821
0.2                    0.9987349        157.8783
0.204                   1.000215        156.4631
0.208                    1.00163        155.0345
0.212                   1.002736        153.5966
0.216                   1.003351        152.1585
0.22                    1.003377        150.7325
0.224                    1.00282        149.3322
0.228                   1.001785        147.9696
0.232                   1.000458        146.6531
0.236                  0.9990725        145.3864
0.24                   0.9978684        144.1671
0.244                  0.9970533        142.9876
0.248                  0.9967634         141.836
0.252                   0.997042        140.6983
0.256                  0.9978321        139.5607
0.26                   0.9989887        138.4122
0.264                   1.000305        137.2461
0.268                   1.001549        136.0613
0.272                   1.002506         134.862
0.276                   1.003013        133.6571
0.28                    1.002986        132.4584
0.284                   1.002436        131.2783
0.288                   1.001463        130.1279
0.292                   1.000239        129.0153
0.296                   0.998979        127.9436
0.3                    0.9979048        126.9107
0.304                  0.9972024        125.9094
0.308                  0.9969924        124.9288
0.312                  0.9973085        123.9561
0.316                  0.9980909        122.9788
0.32                   0.9991983        121.9871
0.324                   1.000434        120.9753
0.328                   1.001581         119.943
0.332                    1.00244        118.8948
0.336                   1.002862        117.8394
0.34                    1.002776        116.7883
0.344                     1.0022        115.7534
0.348                   1.001236        114.7452
0.352                   1.000055        113.7711
0.356                  0.9988641        112.8338
0.36                   0.9978728        111.9306
0.364                  0.9972552        111.0546
0.368                  0.9971193         110.195
0.372                  0.9974877        109.3393
0.376                  0.9982937         108.476
0.38                   0.9993937        107.5958
0.384                   1.000593         106.694
0.388                    1.00168        105.7707
0.392                   1.002465         104.831
0.396                   1.002811        103.8839
0.4                     1.002659        102.9407
0.404                   1.002036        102.0132
0.408                   1.001051        101.1114
0.412                  0.9998775        100.2421
0.416                  0.9987224        99.40732
0.42                   0.9977894        98.60409
0.424                  0.9972436        97.82486
0.428                  0.9971816        97.05875
0.432                  0.9976144        96.29355
0.436                  0.9984649        95.51788
0.44                   0.9995824        94.72323
0.444                   1.000769        93.90547
0.448                   1.001816        93.06546
0.452                   1.002538         92.2089
0.456                   1.002809        91.34524
0.46                    1.002581        90.48597
0.464                   1.001893        89.64277
0.468                   1.000865        88.82539
0.472                  0.9996769        88.03997
0.476                  0.9985392        87.28791
0.48                   0.9976526        86.56554
0.484                   0.997175        85.86468
0.488                   0.997192        85.17408
0.492                  0.9977014        84.48146
0.496                  0.9986131        83.77561
0.5                    0.9997658        83.04858
0.504                   1.000955        82.29692
0.508                   1.001971        81.52229
0.512                   1.002634        80.73117
0.516                   1.002825        79.93356
0.52                     1.00251        79.14138
0.524                   1.001742        78.36629
0.528                   1.000654        77.61779
0.532                  0.9994382        76.90141
0.536                  0.9983081        76.21779
0.54                   0.9974648        75.56242
0.544                  0.9970592        74.92634
0.548                  0.9971652        74.29774
0.552                  0.9977653        73.66405
0.556                  0.9987539        73.01427
0.56                   0.9999561        72.34089
0.564                   1.001159        71.64129
0.568                   1.002148        70.91805
0.572                   1.002749        70.17854
0.576                   1.002853        69.43351
0.58                    1.002439        68.69536
0.584                   1.001577        67.97585
0.588                   1.000418         67.2842
0.592                  0.9991646        66.62533
0.596                  0.9980386        65.99898
0.6                    0.9972412         65.3996
0.604                  0.9969165         64.8173
0.608                  0.9971247        64.23955
0.612                  0.9978308        63.65349
0.616                   0.998911         63.0482
0.62                    1.000174        62.41678
0.624                   1.001396        61.75743
0.628                   1.002359        61.07383
0.632                   1.002892        60.37437
0.636                   1.002897        59.67077
0.64                     1.00237         58.9759
0.644                   1.001401        58.30172
0.648                   1.000158        57.65712
0.652                  0.9988606        57.04629
0.656                  0.9977384        56.46793
0.66                    0.996993        55.91532
0.664                  0.9967602        55.37748
0.668                   0.997085        54.84104
0.672                  0.9979124        54.29275
0.676                  0.9990971        53.72186
0.68                    1.000429        53.12208
0.684                   1.001672        52.49265
0.688                   1.002604        51.83845
0.692                   1.003057        51.16913
0.696                   1.002949        50.49734
0.7                     1.002293        49.83666
0.704                     1.0012        49.19917
0.708                  0.9998627        48.59339
0.712                  0.9985149        48.02265
0.716                  0.9973978        47.48447
0.72                   0.9967123        46.97078
0.724                   0.996585         46.4693
0.728                  0.9970425        45.96575
0.732                  0.9980067        45.44648
0.736                  0.9993077        44.90093
0.74                    1.000715        44.32354
0.744                   1.001978        43.71477
0.748                   1.002871        43.08087
0.752                   1.003231        42.43286
0.756                    1.00299        41.78454
0.76                    1.002185        41.15016
0.764                   1.000954        40.54195
0.768                  0.9995095        39.96798
0.772                  0.9981081        39.43058
0.776                  0.9969999        38.92588
0.78                   0.9963862        38.44422
0.784                  0.9963809        37.97194
0.788                    0.99699        37.49373
0.792                  0.9981087        36.99549
0.796                  0.9995396        36.46693
0.8                     1.001029        35.90342
0.804                    1.00231        35.30673
0.808                   1.003153        34.68475
0.812                   1.003404        34.05003
0.816                   1.003011        33.41761
0.82                    1.002037        32.80251
0.824                   1.000649        32.21706
0.828                  0.9990882        31.66876
0.832                  0.9976311         31.1588
0.836                  0.9965395        30.68165
0.84                   0.9960127        30.22589
0.844                  0.9961507        29.77626
0.848                  0.9969346        29.31631
0.852                  0.9982287        28.83155
0.856                  0.9998051        28.31202
0.86                    1.001383        27.75416
0.864                    1.00268        27.16133
0.868                   1.003463        26.54322
0.872                   1.003585        25.91413
0.876                   1.003018        25.29049
0.88                    1.001853        24.68812
0.884                   1.000289        24.11945
0.888                  0.9986009        23.59128
0.892                   0.997087        23.10339
0.896                  0.9960212        22.64838
0.9                       0.9956        22.21284
0.904                  0.9959061        21.77965
0.908                  0.9968918        21.33117
0.912                  0.9983863        20.85245
0.916                   1.000126        20.33404
0.92                    1.001801        19.77361
0.924                   1.003111        19.17638
0.928                   1.003818        18.55409
0.932                    1.00379        17.92301
0.936                    1.00302        17.30113
0.94                    1.001636        16.70517
0.944                  0.9998739        16.14758
0.948                   0.998043        15.63432
0.952                  0.9964693        15.16354
0.956                  0.9954389        14.72569
0.96                    0.995144        14.30498
0.964                  0.9956466        13.88227
0.968                  0.9968653        13.43853
0.972                  0.9985886        12.95839
0.976                   1.000512        12.43298
0.98                    1.002293        11.86151
0.984                   1.003611        11.25128
0.988                   1.004226        10.61644
0.992                   1.004018        9.975493
0.996                   1.003011        9.348209
1                       1.001371        8.752277
1.004                  0.9993794        8.200189
1.008                  0.9973852        7.696895
1.012                   0.995745        7.238626
1.016                  0.9947588         6.81327
1.02                   0.9946135        6.402346
1.024                  0.9953463        5.984315
1.028                  0.9968363        5.538574
1.032                  0.9988241        5.049308
1.036                   1.000959        4.508386
1.04                    1.002859        3.916767
1.044                   1.004182        3.284254
1.048                   1.004683        2.627745
1.052                    1.00426         1.96837
1.056                   1.002971        1.327961
1.06                    1.001028       0.7253647
1.064                  0.9987648       0.1731068
1.068                  0.9965778      -0.3250468
1.072                  0.9948598      -0.7751344
1.076                   0.993927       -1.192288
1.08                   0.9939597       -1.598221
1.084                  0.9949664       -2.017302
1.088                  0.9967789       -2.471996
1.092                  0.9990814       -2.978654
1.096                   1.001467       -3.544539
1.1                     1.003508       -4.166601
1.104                   1.004836        -4.83213
1.108                   1.005202       -5.520887
1.112                   1.004521       -6.208659
1.116                   1.002892       -6.871133
1.12                    1.000583       -7.487981
1.124                  0.9979898       -8.046608
1.128                  0.9955671       -8.544564
1.132                  0.9937518       -8.990651
1.136                  0.9928812       -9.403638
1.14                    0.993129       -9.809192
1.144                   0.994469       -10.23517
1.148                  0.9966763       -10.70635
1.152                  0.9993664       -11.23982
1.156                   1.002064       -11.84184
1.16                    1.004285       -12.50687
1.164                   1.005626       -13.21866
1.168                    1.00583       -13.95302
1.172                   1.004834       -14.68182
1.176                   1.002785       -15.37759
1.18                    1.000018       -16.01809
1.184                  0.9970069       -16.59039
1.188                  0.9942794       -17.09365
1.192                  0.9923302       -17.53989
1.196                  0.9915264       -17.95245
1.2                    0.9920357       -18.36204
1.204                  0.9937911       -18.80102
1.208                  0.9964982       -19.29727
1.212                   0.999686       -19.86896
1.216                   1.002791       -20.52126
1.22                    1.005256       -21.24565
1.224                   1.006628       -22.02151
1.228                   1.006637       -22.81958
1.232                   1.005243       -23.60674
1.236                   1.002651       -24.35123
1.24                   0.9992809       -25.02803
1.244                  0.9957053       -25.62347
1.248                  0.9925526       -26.13836
1.252                  0.9903969       -26.58879
1.256                  0.9896503       -27.00402
1.26                   0.9904801       -27.42151
1.264                  0.9927707       -27.87985
1.268                  0.9961384       -28.41138
1.272                  0.9999984       -29.03608
1.276                   1.003668       -29.75807
1.28                    1.006486       -30.56516
1.284                   1.007928        -31.4311
1.288                   1.007696       -32.31992
1.292                   1.005773       -33.19158
1.296                   1.002433       -34.00817
1.3                    0.9982084       -34.74026
1.304                  0.9938098       -35.37242
1.308                  0.9900072       -35.90707
1.312                  0.9874965        -36.3655
1.316                  0.9867659       -36.78514
1.32                   0.9879951       -37.21317
1.324                  0.9910107       -37.69755
1.328                  0.9953095        -38.2777
1.332                   1.000146       -38.97697
1.336                   1.004662       -39.79875
1.34                     1.00804       -40.72623
1.344                   1.009636       -41.72552
1.348                   1.009093       -42.75115
1.352                   1.006408       -43.75277
1.356                   1.001944       -44.68272
1.36                   0.9963895       -45.50388
1.364                  0.9906574        -46.1967
1.368                  0.9857437       -46.76458
1.372                  0.9825493       -47.23564
1.376                   0.981706       -47.65956
1.38                   0.9834412       -48.09918
1.384                  0.9875156       -48.61836
1.388                  0.9932536       -49.26922
1.392                  0.9996597       -50.08226
1.396                   1.005592       -51.06135
1.4                     1.009956       -52.18383
1.404                   1.011889       -53.40482
1.408                   1.010902       -54.66409
1.412                   1.006968       -55.89431
1.416                   1.000556       -57.03056
1.42                   0.9925849       -58.02017
1.424                  0.9843063       -58.83314
1.428                  0.9771219       -59.47074
1.432                  0.9723381       -59.97014
1.436                  0.9709083       -60.40197
1.44                   0.9732188       -60.85886
1.444                  0.9789744       -61.43741
1.448                  0.9872245       -62.21817
1.452                  0.9965215        -63.2502
1.456                   1.005169       -64.54349
1.46                    1.011502       -66.06947
1.464                   1.014144       -67.76707
1.468                   1.012226       -69.55155
1.472                    1.00553        -71.3244
1.476                  0.9945749       -72.98459
1.48                   0.9806084       -74.44157
1.484                  0.9655098       -75.63162
1.488                  0.9515652       -76.53662
1.492                  0.9411115       -77.20115
1.496                   0.936076       -77.73969
1.5                    0.9375052       -78.32542
1.504                  0.9452243       -79.15846
1.508                  0.9577519       -80.42393
1.512                   0.972495       -82.25718
1.516                  0.9861383       -84.72793
1.52                    0.995087       -87.84397
1.524                  0.9958607       -91.56544
1.528                  0.9853888       -95.82101
1.532                  0.9612067         -100.52
1.536                  0.9215749       -105.5582
1.54                   0.8655406       -110.8168
1.544                  0.7929652       -116.1522
1.548                  0.7045334         -121.37
1.552                  0.6017778       -126.1647
1.556                  0.4871975       -129.9631
1.56                   0.3647704       -131.4444
1.564                  0.2423603       -126.6981
1.568                  0.1459889       -101.7974
1.572                  0.1557989       -52.47599
1.576                  0.2594027       -32.07686
1.58                     0.38243       -28.73529
1.584                    0.50375        -30.7239
1.588                  0.6164484       -34.75993
1.592                  0.7168629       -39.69048
1.596                  0.8026836       -44.99908
1.6                    0.8725345       -50.40321
1.604                  0.9258743       -55.71913
1.608                  0.9629745       -60.80869
1.612                  0.9849055       -65.55641
1.616                  0.9935044       -69.86077
1.62                   0.9913065       -73.63383
1.624                  0.9814205       -76.80792
1.628                   0.967325       -79.34809
1.632                  0.9525691       -81.26824
1.636                  0.9403798       -82.64468
1.64                    0.933228       -83.61812
1.644                  0.9324614       -84.37607
1.648                  0.9381381       -85.11723
1.652                  0.9491336       -86.01022
1.656                  0.9634918       -87.16399
1.66                   0.9788867       -88.61835
1.664                   0.993066       -90.35232
1.668                   1.004187       -92.30125
1.672                   1.011027       -94.37506
1.676                    1.01307        -96.4738
1.68                    1.010517       -98.50008
1.684                     1.0042       -100.3694
1.688                  0.9954507       -102.0195
1.692                  0.9858998       -103.4191
1.696                  0.9772315       -104.5738
1.7                    0.9709197       -105.5274
1.704                  0.9679837       -106.3562
1.708                  0.9688223       -107.1548
1.712                  0.9731675       -108.0172
1.716                  0.9801714       -109.0187
1.72                   0.9885971       -110.2035
1.724                  0.9970611       -111.5809
1.728                   1.004269       -113.1282
1.732                   1.009207       -114.7987
1.736                   1.011269       -116.5311
1.74                    1.010313       -118.2586
1.744                   1.006659       -119.9185
1.748                   1.001025       -121.4594
1.752                  0.9944101       -122.8487
1.756                  0.9879419       -124.0778
1.76                   0.9826952        -125.164
1.764                  0.9795173       -126.1487
1.768                   0.978887       -127.0901
1.772                  0.9808401       -128.0526
1.776                   0.984979       -129.0944
1.78                   0.9905616       -130.2572
1.784                  0.9966468       -131.5603
1.788                    1.00226       -132.9992
1.792                    1.00655       -134.5491
1.796                   1.008909       -136.1699
1.8                     1.009053       -137.8132
1.804                   1.007047       -139.4299
1.808                   1.003283       -140.9759
1.812                  0.9984152        -142.419
1.816                  0.9932598       -143.7433
1.82                   0.9886631       -144.9522
1.824                  0.9853665       -146.0683
1.828                   0.983885       -147.1297
1.832                  0.9844233       -148.1837
1.836                  0.9868471       -149.2778
1.84                   0.9907165       -150.4511
1.844                  0.9953723       -151.7283
1.848                   1.000055        -153.116
1.852                   1.004029       -154.6035
1.856                   1.006698       -156.1651
1.86                    1.007686       -157.7656
1.864                   1.006887       -159.3649
1.868                   1.004472       -160.9246
1.872                   1.000859       -162.4126
1.876                  0.9966432       -163.8083
1.88                     0.99251       -165.1053
1.884                  0.9891223       -166.3135
1.888                  0.9870154       -167.4569
1.892                  0.9865093       -168.5703
1.896                  0.9876578       -169.6932
1.9                    0.9902442       -170.8623
1.904                  0.9938251       -172.1055
1.908                  0.9978097       -173.4377
1.912                   1.001561       -174.8589
1.916                   1.004498        -176.355
1.92                    1.006179        -177.901
1.924                   1.006369       -179.4649
1.928                   1.005065        178.9872
1.932                   1.002491        177.4869
1.936                  0.9990661        176.0586
1.94                   0.9953391        174.7157
1.944                  0.9919014        173.4587
1.948                  0.9892957        172.2749
1.952                  0.9879284        171.1396
1.956                  0.9880027        170.0209
1.96                   0.9894877        168.8848
1.964                  0.9921256        167.7011
1.968                  0.9954795        166.4486
1.972                  0.9990084        165.1182
1.976                   1.002154        163.7137
1.98                     1.00443        162.2505
1.984                   1.005492        160.7531
1.988                   1.005184        159.2512
1.992                   1.003562        157.7752
1.996                   1.000883        156.3521
2                      0.9975633        155.0018
2.004                  0.9941209        153.7334
2.008                  0.9910931        152.5441
2.012                  0.9889531        151.4192
2.016                  0.9880338        150.3339
2.02                   0.9884728        149.2575
2.024                  0.9901898        148.1589
2.028                  0.9929019        147.0114
2.032                   0.996171        145.7973
2.036                  0.9994758        144.5104
2.04                    1.002295        143.1568
2.044                   1.004186         141.753
2.048                   1.004851        140.3237
2.052                   1.004178        138.8979
2.056                   1.002257        137.5048
2.06                   0.9993698        136.1697
2.064                  0.9959473        134.9105
2.068                  0.9925098        133.7343
2.072                  0.9895872        132.6363
2.076                  0.9876362        131.5999
2.08                   0.9869659        130.5987
2.084                  0.9876842        129.6012
2.088                  0.9896789        128.5756
2.092                  0.9926336        127.4955
2.096                  0.9960789        126.3438
2.1                    0.9994661        125.1155
2.104                   1.002253        123.8184
2.108                   1.003983         122.471
2.112                   1.004358        121.1001
2.116                   1.003277         119.737
2.12                     1.00086        118.4133
2.124                  0.9974309         117.156
2.128                  0.9934788        115.9841
2.132                  0.9895902        114.9046
2.136                  0.9863612        113.9107
2.14                   0.9843041        112.9825
2.144                  0.9837595        112.0884
2.148                  0.9848346        111.1912
2.152                  0.9873766        110.2533
2.156                  0.9909924        109.2436
2.16                   0.9951064        108.1426
2.164                  0.9990487        106.9453
2.168                   1.002158         105.662
2.172                   1.003879        104.3162
2.176                   1.003851        102.9418
2.18                     1.00196        101.5782
2.184                  0.9983728        100.2654
2.188                  0.9935211        99.03846
2.192                  0.9880581        97.92155
2.196                   0.982773        96.92348
2.2                     0.978475        96.03419
2.204                  0.9758618        95.22424
2.208                  0.9753932        94.44802
2.212                  0.9771943        93.65056
2.216                  0.9810127        92.77694
2.22                   0.9862423        91.78193
2.224                  0.9920077        90.63777
2.228                  0.9972944        89.33853
2.232                   1.001099        87.90069
2.236                   1.002576        86.36067
2.24                    1.001172        84.77028
2.244                  0.9967123        83.19065
2.248                  0.9894621        81.68512
2.252                  0.9801288         80.3109
2.256                  0.9698068        79.10938
2.26                   0.9598566          78.096
2.264                  0.9517121        77.25122
2.268                  0.9466343        76.51605
2.272                  0.9454469        75.79552
2.276                  0.9483131        74.97162
2.28                   0.9546167        73.92353
2.284                  0.9629817        72.54872
2.288                    0.97142        70.77861
2.292                  0.9775631        68.58552
2.296                  0.9789191        65.98152
2.3                    0.9731104        63.01317
2.304                  0.9580712        59.75577
2.308                  0.9322007        56.31035
2.312                  0.8944818        52.80546
2.316                  0.8445802        49.40572
2.32                   0.7829487        46.33049
2.324                  0.7109704        43.88846
2.328                  0.6312132        42.53784
2.332                  0.5479246        42.98166
2.336                  0.4679813        46.26965
2.34                   0.4023126        53.66613
2.344                  0.3660144        65.51376
2.348                  0.3715744        79.12709
2.352                   0.417231        90.03463