! TOUCHSTONE file generated by CST MICROWAVE STUDIO
! Date and time: Tue Jun  7 19:07:16 2022
! Project name: AppElm_antenne_patch_FR4.cst
! Parameters = {L=45; W=49.725; e=0.035; h=1.6; lambda=0.190476; ls=120; w0=1.6; w1=0.533333; ws=120; y0=20; y1=23.8095}
! Header version: 2018
! Port assignment regex: !\s*Touchstone port\s*([0-9]+)\s*=\s*(CST MWS port|CST DS port)\s*([0-9]+|Zmin|Zmax)\s*\(\"(.*)\"\)(\s*mode\s*([0-9]+))?.*
! Touchstone port assignment:
! Touchstone port 1 = CST MWS port 1 ("")
# GHz S MA R 50
0                      0.9934769              -0
0.004                  0.9938293       -8.590653
0.008                  0.9948445       -17.12663
0.012                  0.9964022       -25.55512
0.016                   0.998319       -33.82679
0.02                     1.00037       -41.89712
0.024                   1.002318       -49.72727
0.028                   1.003941       -57.28445
0.032                   1.005056       -64.54225
0.036                   1.005543       -71.48048
0.04                    1.005358       -78.08518
0.044                   1.004539        -84.3485
0.048                   1.003196        -90.2688
0.052                   1.001505       -95.85055
0.056                  0.9996817       -101.1044
0.06                   0.9979579       -106.0467
0.064                  0.9965495       -110.6992
0.068                  0.9956302       -115.0875
0.072                  0.9953077       -119.2401
0.076                  0.9956098       -123.1862
0.08                   0.9964797       -126.9537
0.084                  0.9977864       -130.5676
0.088                  0.9993409       -134.0481
0.092                   1.000925       -137.4101
0.096                   1.002321       -140.6628
0.1                     1.003339       -143.8102
0.104                   1.003848       -146.8519
0.108                   1.003787       -149.7849
0.112                   1.003178       -152.6051
0.116                    1.00212        -155.309
0.12                    1.000774       -157.8954
0.124                  0.9993427       -160.3664
0.128                  0.9980404       -162.7283
0.132                  0.9970592       -164.9914
0.136                  0.9965431       -167.1696
0.14                   0.9965637       -169.2787
0.144                  0.9971111       -171.3351
0.148                  0.9980949       -173.3533
0.152                  0.9993585       -175.3448
0.156                   1.000704       -177.3167
0.16                    1.001924       -179.2711
0.164                   1.002831        178.7946
0.168                   1.003288        176.8869
0.172                   1.003228        175.0146
0.176                   1.002666        173.1873
0.18                    1.001694        171.4137
0.184                   1.000467        169.6995
0.188                  0.9991819        168.0469
0.192                  0.9980431        166.4531
0.196                  0.9972326        164.9112
0.2                    0.9968786        163.4107
0.204                  0.9970357        161.9389
0.208                  0.9976753        160.4827
0.212                  0.9986905         159.031
0.216                  0.9999138         157.576
0.22                    1.001145        156.1143
0.224                   1.002183        154.6474
0.228                    1.00286         153.181
0.232                   1.003067        151.7243
0.236                   1.002771        150.2878
0.24                    1.002022        148.8823
0.244                   1.000943        147.5161
0.248                  0.9997118        146.1947
0.252                   0.998532        144.9185
0.256                  0.9975992        143.6837
0.26                   0.9970683        142.4819
0.264                  0.9970271         141.302
0.268                   0.997482        140.1316
0.272                  0.9983552        138.9593
0.276                  0.9994993        137.7764
0.28                    1.000722        136.5785
0.284                   1.001818        135.3659
0.288                   1.002604        134.1434
0.292                   1.002948        132.9198
0.296                   1.002793        131.7059
0.3                     1.002164        130.5131
0.304                   1.001167        129.3511
0.308                  0.9999692        128.2266
0.312                  0.9987726        127.1417
0.316                  0.9977802        126.0939
0.32                   0.9971615        125.0761
0.324                  0.9970222        124.0776
0.328                   0.997387        123.0862
0.332                  0.9981934        122.0903
0.336                  0.9993036        121.0805
0.34                    1.000528        120.0518
0.344                   1.001658        119.0036
0.348                     1.0025        117.9406
0.352                    1.00291        116.8712
0.356                   1.002819        115.8065
0.36                     1.00224        114.7582
0.364                   1.001272        113.7367
0.368                   1.000079        112.7493
0.372                  0.9988649        111.7991
0.376                  0.9978398         110.884
0.38                   0.9971812        109.9971
0.384                  0.9970046        109.1281
0.388                  0.9973417        108.2645
0.392                  0.9981353        107.3944
0.396                  0.9992488        106.5081
0.4                     1.000489        105.6002
0.404                   1.001643        104.6699
0.408                    1.00251        103.7218
0.412                    1.00294        102.7647
0.416                   1.002858        101.8097
0.42                    1.002276        100.8691
0.424                   1.001294        99.95372
0.428                   1.000079        99.07122
0.432                  0.9988422        98.22478
0.436                  0.9977989        97.41235
0.44                   0.9971323        96.62697
0.444                  0.9969609        95.85786
0.448                  0.9973166        95.09236
0.452                  0.9981386        94.31812
0.456                  0.9992841         93.5253
0.46                    1.000554        92.70841
0.464                   1.001725        91.86704
0.468                   1.002594        91.00605
0.472                   1.003007         90.1346
0.476                   1.002892        89.26453
0.48                    1.002265        88.40842
0.484                   1.001233        87.57738
0.488                  0.9999752        86.77917
0.492                    0.99871        86.01679
0.496                  0.9976601        85.28771
0.5                    0.9970114        84.58446
0.504                  0.9968808        83.89563
0.508                  0.9972932        83.20806
0.512                  0.9981778        82.50908
0.516                  0.9993799        81.78885
0.52                    1.000688        81.04212
0.524                   1.001872        80.26908
0.528                   1.002723         79.4753
0.532                   1.003089        78.67069
0.536                   1.002904        77.86779
0.54                    1.002197        77.07962
0.544                   1.001089        76.31748
0.548                  0.9997728        75.58895
0.552                  0.9984787        74.89644
0.556                  0.9974362        74.23671
0.56                   0.9968317        73.60133
0.564                  0.9967752        72.97807
0.568                  0.9972795        72.35308
0.572                   0.998257        71.71347
0.576                  0.9995359        71.04958
0.58                     1.00089        70.35672
0.584                   1.002079        69.63597
0.588                   1.002892        68.89391
0.592                   1.003183        68.14149
0.596                   1.002897        67.39205
0.6                     1.002082        66.65912
0.604                   1.000876        65.95399
0.608                  0.9994914        65.28382
0.612                  0.9981724        64.65015
0.616                  0.9971542        64.04868
0.62                   0.9966212         63.4697
0.624                  0.9966714        62.89996
0.628                  0.9972994        62.32491
0.632                  0.9983957        61.73148
0.636                  0.9997665        61.11037
0.64                    1.001168        60.45777
0.644                   1.002352        59.77597
0.648                   1.003105         59.0729
0.652                   1.003291        58.36072
0.656                   1.002874        57.65369
0.66                    1.001922        56.96575
0.664                     1.0006         56.3081
0.668                  0.9991417        55.68718
0.672                  0.9978051         55.1034
0.676                  0.9968309        54.55095
0.68                   0.9963968         54.0187
0.684                  0.9965846        53.49215
0.688                  0.9973648        52.95606
0.692                  0.9986005        52.39728
0.696                   1.000072        51.80718
0.7                     1.001518        51.18311
0.704                   1.002678        50.52888
0.708                   1.003345        49.85402
0.712                   1.003394        49.17211
0.716                   1.002814        48.49835
0.72                      1.0017        47.84709
0.724                   1.000248        47.22917
0.728                  0.9987126        46.65006
0.732                  0.9973696        46.10866
0.736                  0.9964617        45.59741
0.74                   0.9961561        45.10344
0.744                  0.9965126        44.61092
0.748                  0.9974716        44.10396
0.752                  0.9988638        43.56954
0.756                   1.000441        42.99991
0.76                    1.001921        42.39396
0.764                   1.003036        41.75734
0.768                   1.003586        41.10142
0.772                   1.003466        40.44132
0.776                    1.00269        39.79324
0.78                    1.001392        39.17176
0.784                  0.9997975        38.58719
0.788                  0.9981892        38.04367
0.792                  0.9968567        37.53827
0.796                  0.9960425        37.06131
0.8                     0.995899        36.59801
0.804                  0.9964574        36.13112
0.808                  0.9976215        35.64418
0.812                  0.9991854        35.12453
0.816                   1.000869        34.56564
0.82                    1.002369        33.96828
0.824                   1.003416        33.34026
0.828                   1.003815        32.69503
0.832                    1.00349        32.04937
0.836                    1.00249        31.42045
0.84                    1.000986        30.82293
0.844                  0.9992432        30.26628
0.848                  0.9975708        29.75299
0.852                   0.996272        29.27789
0.856                  0.9955854        28.82889
0.86                   0.9956419        28.38906
0.864                  0.9964377        27.93974
0.868                  0.9978347        27.46399
0.872                   0.999584        26.94983
0.876                   1.001372        26.39231
0.88                    1.002876        25.79445
0.884                   1.003822        25.16655
0.888                   1.004035        24.52438
0.892                   1.003468        23.88646
0.896                   1.002212        23.27089
0.9                     1.000485         22.6922
0.904                  0.9985894         22.1587
0.908                  0.9968664        21.67081
0.912                  0.9956296        21.22072
0.916                  0.9951094        20.79359
0.92                   0.9954083        20.37016
0.924                    0.99648        19.93033
0.928                  0.9981371        19.45692
0.932                   1.000084        18.93892
0.936                    1.00197         18.3734
0.94                    1.003454        17.76603
0.944                   1.004266        17.12995
0.948                   1.004249        16.48348
0.952                   1.003397        15.84699
0.956                   1.001851        15.23939
0.96                    0.999878        14.67487
0.964                  0.9978279        14.16018
0.968                  0.9960704        13.69323
0.972                  0.9949284        13.26311
0.976                  0.9946178        12.85185
0.98                   0.9952056        12.43768
0.984                  0.9965942        11.99907
0.988                  0.9985394        11.51885
0.992                   1.000693        10.98735
0.996                   1.002667        10.40414
1                       1.004103        9.778012
1.004                   1.004735        9.125321
1.008                   1.004438        8.467199
1.012                   1.003251        7.825933
1.016                   1.001373        7.221189
1.02                   0.9991305        6.666502
1.024                  0.9969219        6.166667
1.028                  0.9951482         5.71652
1.032                  0.9941385         5.30151
1.036                  0.9940878        4.900132
1.04                   0.9950181         4.48786
1.044                  0.9967711        4.041799
1.048                   0.999037        3.545016
1.052                   1.001409        2.989678
1.056                   1.003459        2.378369
1.06                    1.004811        1.723524
1.064                   1.005212        1.045193
1.068                   1.004573       0.3676178
1.072                   1.002991      -0.2848435
1.076                   1.000731      -0.8918789
1.08                   0.9981881       -1.440897
1.084                  0.9958159       -1.929597
1.088                  0.9940477       -2.366847
1.092                  0.9932157       -2.771502
1.096                  0.9934866        -3.16915
1.1                    0.9948267       -3.587355
1.104                  0.9970051       -4.050375
1.108                  0.9996351       -4.574605
1.112                   1.002244       -5.165526
1.116                   1.004358        -5.81688
1.12                    1.005588       -6.511893
1.124                   1.005696        -7.22633
1.128                    1.00464       -7.932324
1.132                   1.002586       -8.603272
1.136                  0.9998799       -9.218247
1.14                    0.996995       -9.765943
1.144                  0.9944488       -10.24718
1.148                  0.9927109       -10.67534
1.152                  0.9921135       -11.07448
1.156                  0.9927857       -11.47499
1.16                    0.994625       -11.90793
1.164                  0.9973122       -12.39899
1.168                    1.00037       -12.96365
1.172                   1.003246       -13.60441
1.176                   1.005418       -14.31057
1.18                     1.00648       -15.06021
1.184                   1.006216       -15.82394
1.188                   1.004644       -16.56977
1.192                   1.002012       -17.26837
1.196                  0.9987646       -17.89815
1.2                    0.9954715       -18.44946
1.204                  0.9927271       -18.92702
1.208                  0.9910434       -19.34987
1.212                  0.9907507       -19.74848
1.216                  0.9919304       -20.15919
1.22                   0.9943931       -20.61726
1.224                  0.9977099       -21.15003
1.228                    1.00129       -21.77174
1.232                   1.004488       -22.48114
1.236                   1.006716       -23.26196
1.24                    1.007551       -24.08589
1.244                   1.006806       -24.91727
1.248                    1.00457        -25.7188
1.252                   1.001196       -26.45771
1.256                  0.9972536       -27.11146
1.26                   0.9934354       -27.67241
1.264                   0.990435       -28.15023
1.268                  0.9888207       -28.57125
1.272                  0.9889221       -28.97432
1.276                  0.9907595       -29.40357
1.28                   0.9940315       -29.89981
1.284                   0.998167       -30.49253
1.288                   1.002428       -31.19444
1.292                   1.006043       -31.99952
1.296                    1.00834       -32.88436
1.3                     1.008867       -33.81237
1.304                   1.007471       -34.73958
1.308                   1.004329       -35.62151
1.312                  0.9999354       -36.42043
1.316                  0.9950249       -37.11204
1.32                   0.9904585       -37.69093
1.324                  0.9870725       -38.17322
1.328                  0.9855203       -38.59524
1.332                  0.9861386       -39.00762
1.336                  0.9888698       -39.46565
1.34                   0.9932617       -40.01833
1.344                  0.9985461       -40.69863
1.348                   1.003777        -41.5176
1.352                   1.007998       -42.46296
1.356                    1.01041       -43.50172
1.36                    1.010506       -44.58579
1.364                   1.008164       -45.65929
1.368                   1.003679       -46.66689
1.372                  0.9977354       -47.56259
1.376                  0.9913108       -48.31819
1.38                   0.9855254       -48.93028
1.384                  0.9814457       -49.42375
1.388                  0.9798772       -49.84979
1.392                  0.9811921       -50.27763
1.396                  0.9852345       -50.78093
1.4                     0.991333       -51.42275
1.404                  0.9984168       -52.24302
1.408                   1.005208       -53.25171
1.412                   1.010445       -54.42823
1.416                   1.013096       -55.72576
1.42                     1.01253       -57.07882
1.424                    1.00863        -58.4124
1.428                    1.00184       -59.65227
1.432                  0.9931265       -60.73621
1.436                  0.9838669        -61.6257
1.44                   0.9756413       -62.31681
1.444                  0.9699627       -62.84666
1.448                  0.9679744       -63.29207
1.452                   0.970189       -63.75739
1.456                  0.9763397       -64.35379
1.46                   0.9853984       -65.17534
1.464                  0.9957519       -66.28046
1.468                   1.005487       -67.68284
1.472                   1.012714       -69.35225
1.476                   1.015861       -71.22166
1.48                    1.013923       -73.19741
1.484                   1.006626        -75.1703
1.488                  0.9945229       -77.02744
1.492                  0.9789951       -78.66669
1.496                  0.9621488       -80.01499
1.5                    0.9465667       -81.05039
1.504                  0.9349037       -81.82311
1.508                  0.9293513       -82.46545
1.512                  0.9310836       -83.17878
1.516                  0.9398627       -84.19522
1.52                   0.9539585       -85.72727
1.524                  0.9704066       -87.92778
1.528                    0.98548       -90.87493
1.532                  0.9952068       -94.58044
1.536                   0.995806       -99.00997
1.54                   0.9839998       -104.1044
1.544                  0.9572106        -109.797
1.548                  0.9136697       -116.0258
1.552                  0.8524647       -122.7426
1.556                  0.7735444       -129.9231
1.56                    0.677694       -137.5838
1.564                  0.5664965       -145.8228
1.568                  0.4423089       -154.9372
1.572                  0.3083944       -165.8681
1.576                   0.170235        177.1635
1.58                  0.06090996        111.7496
1.584                  0.1475338         26.1914
1.588                  0.2851847        6.781427
1.592                  0.4201444       -4.702923
1.596                      0.546         -14.064
1.6                    0.6592928       -22.47159
1.604                  0.7575418       -30.28224
1.608                  0.8390439       -37.61538
1.612                  0.9028846       -44.49739
1.616                  0.9489774       -50.90911
1.62                   0.9780914       -56.80522
1.624                  0.9918531       -62.12472
1.628                   0.992709       -66.79982
1.632                  0.9838325        -70.7675
1.636                  0.9689486       -73.98571
1.64                   0.9520473       -76.45474
1.644                  0.9369692       -78.23906
1.648                  0.9268934       -79.47949
1.652                  0.9238341       -80.38349
1.656                  0.9283227       -81.18834
1.66                   0.9394152       -82.10972
1.664                  0.9550382       -83.29832
1.668                  0.9725327       -84.82142
1.672                  0.9892094       -86.66951
1.676                   1.002786       -88.77665
1.68                    1.011667       -91.04322
1.684                   1.015073       -93.35521
1.688                   1.013067       -95.59893
1.692                   1.006479       -97.67301
1.696                  0.9967668       -99.49934
1.7                    0.9857961       -101.0335
1.704                  0.9755618       -102.2739
1.708                  0.9678665       -103.2652
1.712                  0.9640117       -104.0936
1.716                  0.9645687       -104.8709
1.72                   0.9692964       -105.7113
1.724                  0.9772315       -106.7078
1.728                  0.9869178       -107.9159
1.732                  0.9967059       -109.3478
1.736                   1.005047       -110.9772
1.74                    1.010728       -112.7485
1.744                   1.013026       -114.5888
1.748                   1.011782       -116.4191
1.752                    1.00739       -118.1651
1.756                   1.000723       -119.7662
1.76                   0.9929917       -121.1848
1.764                  0.9855537       -122.4121
1.768                  0.9796894       -123.4717
1.772                  0.9763823       -124.4163
1.776                  0.9761459       -125.3187
1.78                   0.9789397       -126.2572
1.784                  0.9841965       -127.3002
1.788                  0.9909497       -128.4934
1.792                  0.9980287       -129.8536
1.796                   1.004269       -131.3687
1.8                       1.0087       -133.0027
1.804                   1.010689       -134.7034
1.808                   1.010013       -136.4112
1.812                   1.006881       -138.0673
1.816                   1.001889       -139.6224
1.82                    0.995922       -141.0434
1.824                  0.9900116       -142.3191
1.828                  0.9851668       -143.4632
1.832                  0.9822004       -144.5121
1.836                  0.9815877       -145.5193
1.84                   0.9833845        -146.545
1.844                  0.9872275       -147.6444
1.848                  0.9924145       -148.8572
1.852                  0.9980414        -150.202
1.856                   1.003167       -151.6741
1.86                    1.006968       -153.2486
1.864                   1.008868       -154.8856
1.868                   1.008613        -156.537
1.872                   1.006303       -158.1539
1.876                   1.002368       -159.6936
1.88                   0.9974945       -161.1258
1.884                  0.9925197       -162.4377
1.888                  0.9882891       -163.6367
1.892                  0.9855145       -164.7497
1.896                  0.9846496       -165.8185
1.9                    0.9858107       -166.8923
1.904                   0.988762       -168.0184
1.908                  0.9929656       -169.2328
1.912                  0.9976868       -170.5551
1.916                   1.002127       -171.9853
1.92                    1.005559       -173.5056
1.924                   1.007442       -175.0843
1.928                     1.0075       -176.6809
1.932                   1.005762        -178.253
1.936                   1.002545       -179.7623
1.94                   0.9984084        178.8199
1.944                  0.9940589        177.5074
1.948                  0.9902362         176.297
1.952                   0.987586        175.1682
1.956                  0.9865487        174.0867
1.96                   0.9872808        173.0103
1.964                  0.9896304        171.8973
1.968                  0.9931702        170.7138
1.972                  0.9972788        169.4399
1.976                   1.001255        168.0722
1.98                    1.004436        166.6238
1.984                   1.006308         165.121
1.988                   1.006583        163.5986
1.992                   1.005238        162.0948
1.996                   1.002519        160.6449
2                      0.9988961        159.2761
2.004                  0.9949883        158.0029
2.008                  0.9914625        156.8249
2.012                   0.988918        155.7257
2.016                  0.9877834        154.6759
2.02                   0.9882394        153.6382
2.024                  0.9901884        152.5744
2.028                  0.9932756        151.4526
2.032                  0.9969567        150.2525
2.036                   1.000597         148.969
2.04                    1.003582        147.6118
2.044                    1.00542        146.2036
2.048                   1.005816        144.7757
2.052                    1.00472         143.363
2.056                   1.002331        141.9983
2.06                   0.9990601        140.7079
2.064                  0.9954699        139.5066
2.068                  0.9921752        138.3952
2.072                  0.9897412        137.3599
2.076                  0.9885826        136.3744
2.08                     0.98889        135.4047
2.084                  0.9905958        134.4149
2.088                  0.9933892        133.3748
2.092                  0.9967749        132.2643
2.096                   1.000164        131.0773
2.1                     1.002977         129.822
2.104                   1.004742        128.5187
2.108                   1.005169        127.1962
2.112                   1.004196        125.8873
2.116                   1.001997        124.6232
2.12                   0.9989525         123.429
2.124                  0.9955863        122.3191
2.128                  0.9924799        121.2948
2.132                  0.9901702        120.3434
2.136                  0.9890555        119.4403
2.14                    0.989323        118.5535
2.144                  0.9909147        117.6489
2.148                  0.9935402        116.6975
2.152                  0.9967313        115.6802
2.156                   0.999928        114.5907
2.16                    1.002577        113.4367
2.164                   1.004227        112.2373
2.168                   1.004602        111.0204
2.172                   1.003642         109.817
2.176                   1.001517        108.6572
2.18                   0.9985949        107.5649
2.184                  0.9953809        106.5535
2.188                  0.9924335        105.6239
2.192                  0.9902666        104.7635
2.196                  0.9892577        103.9482
2.2                    0.9895784         103.147
2.204                  0.9911628        102.3271
2.208                  0.9937214        101.4607
2.212                  0.9967953          100.53
2.216                  0.9998403        99.52954
2.22                    1.002324        98.46738
2.224                   1.003817        97.36281
2.228                   1.004064        96.24303
2.232                   1.003024        95.13851
2.236                   1.000877        94.07811
2.24                    0.997996        93.08433
2.244                  0.9948809        92.16942
2.248                  0.9920766         91.3329
2.252                  0.9900761         90.5613
2.256                  0.9892307        89.83019
2.26                   0.9896853        89.10865
2.264                  0.9913511        88.36501
2.268                  0.9939233        87.57283
2.272                  0.9969377        86.71576
2.276                  0.9998569        85.79015
2.28                    1.002165        84.80525
2.284                   1.003459        83.78124
2.288                   1.003511        82.74554
2.292                   1.002311        81.72832
2.296                   1.000065        80.75743
2.3                    0.9971629        79.85385
2.304                  0.9941113        79.02798
2.308                  0.9914474        78.27736
2.312                  0.9896425        77.58678
2.316                  0.9890161        76.93075
2.32                   0.9896758        76.27803
2.324                  0.9914961        75.59769
2.328                  0.9941432        74.86485
2.332                  0.9971375        74.06526
2.336                  0.9999409        73.19753
2.34                    1.002054        72.27297
2.344                   1.003101        71.31333
2.348                   1.002895        70.34683
2.352                   1.001466        69.40349