! TOUCHSTONE file generated by CST MICROWAVE STUDIO
! Date and time: Tue Jun  7 19:07:18 2022
! Project name: AppElm_antenne_patch_FR4.cst
! Parameters = {L=45; W=55.575; e=0.035; h=1.6; lambda=0.190476; ls=120; w0=1.6; w1=0.533333; ws=120; y0=20; y1=23.8095}
! Header version: 2018
! Port assignment regex: !\s*Touchstone port\s*([0-9]+)\s*=\s*(CST MWS port|CST DS port)\s*([0-9]+|Zmin|Zmax)\s*\(\"(.*)\"\)(\s*mode\s*([0-9]+))?.*
! Touchstone port assignment:
! Touchstone port 1 = CST MWS port 1 ("")
# GHz S MA R 50
0                       0.991555              -0
0.004                  0.9920562       -9.498957
0.008                  0.9934924       -18.92163
0.012                  0.9956695       -28.19509
0.016                  0.9982968       -37.25255
0.02                    1.001029       -46.03552
0.024                   1.003513       -54.49493
0.028                    1.00544       -62.59153
0.032                    1.00658       -70.29578
0.036                   1.006814       -77.58754
0.04                    1.006147       -84.45561
0.044                   1.004702       -90.89763
0.048                   1.002704       -96.91985
0.052                   1.000444       -102.5369
0.056                  0.9982423       -107.7716
0.06                   0.9964004       -112.6537
0.064                  0.9951589       -117.2184
0.068                  0.9946643       -121.5042
0.072                  0.9949504       -125.5502
0.076                  0.9959359       -129.3927
0.08                   0.9974427       -133.0637
0.084                  0.9992243       -136.5881
0.088                   1.001006       -139.9832
0.092                   1.002526       -143.2593
0.096                   1.003575       -146.4197
0.1                     1.004021       -149.4636
0.104                   1.003827       -152.3871
0.108                   1.003054       -155.1861
0.112                   1.001847       -157.8581
0.116                    1.00041       -160.4038
0.12                    0.998976       -162.8284
0.124                  0.9977676       -165.1413
0.128                  0.9969657       -167.3564
0.132                  0.9966809       -169.4899
0.136                  0.9969386       -171.5594
0.14                   0.9976774       -173.5811
0.144                  0.9987622       -175.5685
0.148                   1.000008       -177.5305
0.152                    1.00121       -179.4714
0.156                   1.002179        178.6098
0.16                    1.002769        176.7176
0.164                   1.002898        174.8597
0.168                    1.00256        173.0446
0.172                   1.001823          171.28
0.176                   1.000817        169.5717
0.18                   0.9997141        167.9217
0.184                  0.9986944        166.3283
0.188                  0.9979225        164.7857
0.192                  0.9975181        163.2849
0.196                  0.9975382         161.815
0.2                    0.9979683        160.3646
0.204                  0.9987271        158.9239
0.208                  0.9996809        157.4859
0.212                   1.000667         156.047
0.216                   1.001522        154.6078
0.22                    1.002107        153.1725
0.224                   1.002331         151.748
0.228                   1.002163        150.3424
0.232                   1.001638        148.9639
0.236                    1.00085        147.6192
0.24                   0.9999332        146.3121
0.244                  0.9990433        145.0431
0.248                   0.998328        143.8091
0.252                  0.9979046        142.6039
0.256                  0.9978392         141.419
0.26                   0.9981376        140.2453
0.264                  0.9987434        139.0743
0.268                  0.9995496        137.8994
0.272                   1.000417        136.7174
0.276                     1.0012        135.5283
0.28                    1.001765        134.3355
0.284                   1.002021        133.1452
0.288                   1.001928        131.9649
0.292                   1.001506        130.8026
0.296                   1.000829        129.6648
0.3                     1.000015        128.5559
0.304                  0.9992033        127.4773
0.308                  0.9985319         126.427
0.312                  0.9981146        125.3999
0.316                  0.9980207        124.3887
0.32                   0.9982634        123.3851
0.324                  0.9987987        122.3812
0.328                  0.9995325         121.371
0.332                   1.000337        120.3511
0.336                   1.001075        119.3213
0.34                    1.001619        118.2847
0.344                   1.001879         117.247
0.348                   1.001811        116.2155
0.352                   1.001428        115.1976
0.356                   1.000798        114.2001
0.36                    1.000029        113.2274
0.364                  0.9992556        112.2813
0.368                  0.9986096        111.3599
0.372                   0.998203        110.4588
0.376                  0.9981051        109.5711
0.38                   0.9983318        108.6888
0.384                  0.9988426        107.8045
0.388                  0.9995478        106.9121
0.392                   1.000325        106.0084
0.396                   1.001038        105.0932
0.4                     1.001564        104.1695
0.404                   1.001812        103.2429
0.408                    1.00174        102.3206
0.412                    1.00136          101.41
0.416                   1.000739        100.5178
0.42                   0.9999832        99.64844
0.424                  0.9992255        98.80359
0.428                  0.9985976         97.9816
0.432                  0.9982095        97.17789
0.436                  0.9981294        96.38564
0.44                   0.9983715        95.59706
0.444                  0.9988939        94.80462
0.448                  0.9996051        94.00248
0.452                   1.000381        93.18748
0.456                   1.001086        92.35966
0.46                    1.001596        91.52217
0.464                   1.001824        90.68078
0.468                   1.001727        89.84282
0.472                   1.001323        89.01592
0.476                   1.000681        88.20666
0.48                   0.9999138        87.41949
0.484                  0.9991547        86.65582
0.488                  0.9985376        85.91382
0.492                  0.9981717        85.18861
0.496                  0.9981224        84.47317
0.5                    0.9983995        83.75947
0.504                  0.9989547        83.03997
0.508                  0.9996911        82.30895
0.512                   1.000479        81.56346
0.516                   1.001179        80.80391
0.52                    1.001667        80.03388
0.524                   1.001856        79.25955
0.528                   1.001712        78.48858
0.532                   1.001256        77.72882
0.536                   1.000568        76.98689
0.54                   0.9997672        76.26708
0.544                  0.9989934        75.57045
0.548                  0.9983835         74.8947
0.552                  0.9980463        74.23445
0.556                  0.9980428        73.58218
0.56                   0.9983751        72.92955
0.564                  0.9989853        72.26887
0.568                  0.9997661        71.59457
0.572                   1.000579        70.90404
0.576                    1.00128        70.19821
0.58                    1.001744        69.48131
0.584                   1.001887         68.7601
0.588                    1.00168        68.04275
0.592                   1.001158         67.3374
0.596                    1.00041         66.6507
0.6                    0.9995677        65.98667
0.604                  0.9987794        65.34588
0.608                  0.9981858        64.72533
0.612                  0.9978944         64.1189
0.616                  0.9979597        63.51842
0.62                   0.9983725        62.91509
0.624                  0.9990618         62.3011
0.628                  0.9999063        61.67104
0.632                   1.000757        61.02281
0.636                   1.001461        60.35806
0.64                    1.001894        59.68187
0.644                   1.001975        59.00182
0.648                   1.001687        58.32668
0.652                   1.001078        57.66494
0.656                   1.000254        57.02325
0.66                   0.9993583        56.40522
0.664                   0.998551        55.81078
0.668                  0.9979773        55.23601
0.672                   0.997742        54.67386
0.676                  0.9978905        54.11533
0.68                   0.9983991        53.55112
0.684                  0.9991796        52.97329
0.688                   1.000094        52.37671
0.692                    1.00098        51.75997
0.696                   1.001677        51.12566
0.7                      1.00206        50.47989
0.704                   1.002055        49.83119
0.708                    1.00166        49.18909
0.712                   1.000941        48.56242
0.716                    1.00002        47.95774
0.72                    0.999061        47.37813
0.724                  0.9982342         46.8226
0.728                  0.9976891        46.28613
0.732                  0.9975265         45.7605
0.736                  0.9977789        45.23577
0.74                   0.9984052        44.70205
0.744                  0.9992953        44.15132
0.748                   1.000292        43.57886
0.752                   1.001216        42.98418
0.756                     1.0019        42.37099
0.76                     1.00222        41.74665
0.764                   1.002113        41.12085
0.768                   1.001593        40.50388
0.772                   1.000747        39.90492
0.776                  0.9997228        39.33031
0.78                   0.9987009        38.78245
0.784                  0.9978655        38.25916
0.788                   0.997369        37.75406
0.792                  0.9973051        37.25759
0.796                  0.9976902        36.75872
0.8                    0.9984597        36.24698
0.804                  0.9994789        35.71436
0.808                   1.000567        35.15677
0.812                   1.001527        34.57482
0.816                   1.002187        33.97368
0.82                    1.002423        33.36215
0.824                   1.002186        32.75121
0.828                   1.001513        32.15203
0.832                   1.000518        31.57406
0.836                  0.9993729        31.02333
0.84                   0.9982824        30.50125
0.844                  0.9974432        30.00425
0.848                  0.9970095         29.5243
0.852                  0.9970646        29.05029
0.856                  0.9976041           28.57
0.86                    0.998536        28.07238
0.864                  0.9996955        27.54957
0.868                   1.000875        26.99833
0.872                   1.001862        26.42068
0.876                   1.002475        25.82346
0.88                    1.002598        25.21721
0.884                   1.002199        24.61432
0.888                   1.001343        24.02686
0.892                   1.000174        23.46452
0.896                  0.9988975        22.93276
0.9                    0.9977404        22.43176
0.904                  0.9969131        21.95622
0.908                  0.9965697        21.49612
0.912                  0.9967791        21.03857
0.916                  0.9975106        20.57005
0.92                   0.9986382        20.07896
0.924                  0.9999627        19.55776
0.928                   1.001247        19.00435
0.932                   1.002258        18.42244
0.936                   1.002811        17.82091
0.94                    1.002797        17.21226
0.944                   1.002209        16.61046
0.948                   1.001144        16.02856
0.952                  0.9997846        15.47633
0.956                  0.9983698        14.95847
0.96                   0.9971544        14.47357
0.964                  0.9963618        14.01421
0.968                  0.9961428        13.56809
0.972                  0.9965465        13.12024
0.976                  0.9975092        12.65576
0.98                   0.9988644        12.16259
0.984                   1.000372        11.63373
0.988                   1.001762        11.06855
0.992                   1.002781        10.47289
0.996                    1.00324        9.858031
1                       1.003044        9.238757
1.004                   1.002217        8.630838
1.008                   1.000895        8.048306
1.012                   0.999304        7.500934
1.016                  0.9977258        6.992366
1.02                   0.9964449        6.519226
1.024                   0.995698        6.071492
1.028                  0.9956292        5.634148
1.032                  0.9962619        5.189861
1.036                  0.9974917          4.7222
1.04                   0.9991038        4.218705
1.044                   1.000811        3.673203
1.048                   1.002304        3.086927
1.052                   1.003309        2.468291
1.056                   1.003634        1.831432
1.06                    1.003206        1.193797
1.064                   1.002085        0.573189
1.068                   1.000455     -0.01531576
1.072                  0.9985966      -0.5621033
1.076                  0.9968396       -1.064949
1.08                   0.9955024       -1.529726
1.084                  0.9948354       -1.969646
1.088                  0.9949722       -2.403033
1.092                  0.9959022       -2.850004
1.096                  0.9974698       -3.328711
1.1                    0.9994011       -3.851929
1.104                   1.001352       -4.424697
1.108                   1.002969       -5.043402
1.112                   1.003953       -5.696477
1.116                   1.004114       -6.366274
1.12                    1.003404       -7.032271
1.124                   1.001927       -7.674173
1.128                  0.9999309       -8.275759
1.132                  0.9977601       -8.827741
1.136                  0.9958017       -9.329713
1.14                   0.9944146        -9.79069
1.144                  0.9938635       -10.22784
1.148                   0.994266       -10.66354
1.152                  0.9955683       -11.12125
1.156                  0.9975507       -11.62111
1.16                   0.9998653       -12.17611
1.164                   1.002098       -12.78973
1.168                   1.003844       -13.45535
1.172                   1.004775       -14.15739
1.176                   1.004702       -14.87399
1.18                     1.00361       -15.58059
1.184                   1.001665       -16.25405
1.188                  0.9991888       -16.87668
1.192                  0.9966093       -17.43957
1.196                  0.9943863        -17.9447
1.2                    0.9929294       -18.40512
1.204                  0.9925205       -18.84307
1.208                  0.9932572       -19.28613
1.212                   0.995029       -19.76201
1.216                  0.9975341       -20.29335
1.22                    1.000331       -20.89338
1.224                   1.002917       -21.56358
1.228                   1.004818       -22.29343
1.232                    1.00567       -23.06229
1.236                   1.005289       -23.84281
1.24                    1.003701        -24.6054
1.244                   1.001147       -25.32305
1.248                  0.9980515       -25.97615
1.252                  0.9949476       -26.55625
1.256                   0.992393        -27.0684
1.26                   0.9908651       -27.53102
1.264                  0.9906703       -27.97321
1.268                   0.991879       -28.42955
1.272                  0.9943064       -28.93356
1.276                  0.9975396       -29.51127
1.28                     1.00101       -30.17632
1.284                   1.004096       -30.92753
1.288                   1.006226       -31.74926
1.292                   1.006987       -32.61409
1.296                   1.006192       -33.48726
1.3                     1.003923       -34.33217
1.304                   1.000521       -35.11631
1.308                  0.9965445       -35.81696
1.312                  0.9926799       -36.42593
1.316                   0.989623        -36.9522
1.32                   0.9879533       -37.42155
1.324                  0.9880178        -37.8728
1.328                  0.9898564        -38.3507
1.332                  0.9931818       -38.89739
1.336                  0.9974257       -39.54414
1.34                    1.001838        -40.3055
1.344                   1.005617       -41.17686
1.348                   1.008052       -42.13555
1.352                   1.008642       -43.14457
1.356                   1.007189       -44.15838
1.36                     1.00384        -45.1298
1.364                    0.99908       -46.01738
1.368                  0.9936672       -46.79277
1.372                  0.9885193       -47.44697
1.376                  0.9845582       -47.99401
1.38                   0.9825389       -48.47068
1.384                  0.9828949       -48.93115
1.388                   0.985637       -49.43706
1.392                  0.9903328       -50.04535
1.396                  0.9961745       -50.79697
1.4                      1.00212       -51.70933
1.404                   1.007072       -52.77368
1.408                   1.010069       -53.95718
1.412                   1.010443        -55.2083
1.416                    1.00794       -56.46428
1.42                    1.002782       -57.65988
1.424                  0.9956582       -58.73707
1.428                  0.9876513       -59.65526
1.432                  0.9800844       -60.40082
1.436                  0.9743043       -60.99397
1.44                   0.9714295        -61.4898
1.444                  0.9721095       -61.97119
1.448                  0.9763602       -62.53361
1.452                  0.9835227       -63.26559
1.456                  0.9923619       -64.23083
1.46                    1.001279        -65.4568
1.464                    1.00858       -66.93182
1.468                   1.012748       -68.60866
1.472                   1.012685       -70.41239
1.476                    1.00789       -72.24987
1.48                   0.9985721       -74.02049
1.484                  0.9856877       -75.62845
1.488                  0.9708818       -76.99818
1.492                  0.9563145       -78.09255
1.496                  0.9443519       -78.93178
1.5                    0.9371341       -79.60573
1.504                  0.9360847       -80.27058
1.508                   0.941497       -81.12396
1.512                  0.9523391       -82.36488
1.516                  0.9663495       -84.15392
1.52                   0.9803727       -86.58968
1.524                  0.9908046       -89.70629
1.528                  0.9940191       -93.48557
1.532                  0.9867074       -97.87424
1.536                  0.9661121       -102.7994
1.54                   0.9301728       -108.1785
1.544                   0.877604       -113.9248
1.548                  0.8079233       -119.9462
1.552                  0.7214458       -126.1389
1.556                  0.6192505       -132.3677
1.56                   0.5031365       -138.4155
1.564                  0.3756011       -143.8185
1.568                  0.2400323       -147.1271
1.572                  0.1033706       -139.2652
1.576                 0.06944837       -33.83134
1.58                   0.2015668       -13.26478
1.584                  0.3386578       -15.27018
1.588                  0.4690169       -20.37054
1.592                  0.5888039       -26.36929
1.596                  0.6952736       -32.65714
1.6                    0.7863859       -38.97369
1.604                  0.8608064       -45.16782
1.608                  0.9179539       -51.12852
1.612                  0.9580432       -56.75983
1.616                  0.9821069       -61.97102
1.62                   0.9919852       -66.67429
1.624                  0.9902732       -70.78794
1.628                  0.9802063       -74.24546
1.632                    0.96546       -77.01043
1.636                  0.9498396       -79.09574
1.64                   0.9368554        -80.5809
1.644                  0.9292373       -81.61695
1.648                  0.9285055         -82.409
1.652                   0.934759        -83.1767
1.656                  0.9467788       -84.10704
1.66                   0.9624146       -85.32011
1.664                  0.9791053        -86.8585
1.668                   0.994376       -88.69734
1.672                   1.006212       -90.76413
1.676                   1.013286       -92.95902
1.68                    1.015061       -95.17202
1.684                   1.011789       -97.29605
1.688                    1.00443       -99.23836
1.692                   0.994494       -100.9309
1.696                  0.9838266       -102.3402
1.7                     0.974324       -103.4752
1.704                  0.9676276       -104.3888
1.708                  0.9648416       -105.1709
1.712                  0.9663413       -105.9311
1.716                  0.9717313       -106.7766
1.72                   0.9799611       -107.7899
1.724                  0.9895631       -109.0159
1.728                  0.9989409       -110.4586
1.732                   1.006642       -112.0862
1.736                   1.011572       -113.8407
1.74                    1.013126       -115.6493
1.744                   1.011245       -117.4354
1.748                   1.006403       -119.1279
1.752                  0.9995182        -120.671
1.756                  0.9918102       -122.0319
1.76                   0.9846107       -123.2071
1.764                  0.9791436       -124.2242
1.768                  0.9763156       -125.1385
1.772                  0.9765578       -126.0233
1.776                   0.979756       -126.9552
1.78                   0.9852916       -127.9993
1.784                  0.9921749       -129.1972
1.788                  0.9992387       -130.5621
1.792                   1.005343       -132.0791
1.796                   1.009554       -133.7105
1.8                      1.01128       -135.4035
1.804                   1.010336       -137.0984
1.808                   1.006965       -138.7374
1.812                   1.001786       -140.2721
1.816                  0.9956963       -141.6708
1.82                   0.9897322       -142.9236
1.824                  0.9848988       -144.0454
1.828                  0.9819994       -145.0738
1.832                  0.9814963        -146.063
1.836                  0.9834314       -147.0737
1.84                   0.9874281       -148.1611
1.844                  0.9927709       -149.3652
1.848                  0.9985446       -150.7042
1.852                   1.003797       -152.1732
1.856                   1.007693       -153.7469
1.86                    1.009645       -155.3851
1.864                   1.009388        -157.039
1.868                   1.007015       -158.6588
1.872                   1.002953       -160.2007
1.876                  0.9978933       -161.6329
1.88                   0.9926882       -162.9415
1.884                  0.9882086       -164.1325
1.888                  0.9851995       -165.2322
1.892                  0.9841511       -166.2831
1.896                  0.9852137       -167.3354
1.9                    0.9881744       -168.4386
1.904                  0.9925032       -169.6316
1.908                  0.9974544       -170.9362
1.912                   1.002201        -172.355
1.916                   1.005973       -173.8712
1.92                    1.008177       -175.4536
1.924                   1.008488        -177.061
1.928                   1.006886       -178.6493
1.932                   1.003657        179.8226
1.936                  0.9993489        178.3867
1.94                   0.9946826        177.0605
1.944                  0.9904377        175.8442
1.948                  0.9873228        174.7197
1.952                  0.9858539        173.6532
1.956                  0.9862634        172.6012
1.96                   0.9884606        171.5187
1.964                  0.9920527        170.3673
1.968                  0.9964187        169.1219
1.972                   1.000822        167.7748
1.976                   1.004539        166.3357
1.98                     1.00697        164.8294
1.984                   1.007737         163.291
1.988                   1.006735        161.7607
1.992                   1.004143        160.2777
1.996                   1.000399        158.8742
2                      0.9961257        157.5707
2.004                  0.9920378        156.3722
2.008                  0.9888193        155.2667
2.012                  0.9870084        154.2268
2.016                  0.9869026        153.2143
2.02                   0.9885055        152.1872
2.024                  0.9915289        151.1071
2.028                  0.9954476        149.9469
2.032                  0.9995944        148.6942
2.036                   1.003276        147.3536
2.04                    1.005889        145.9445
2.044                   1.007013        144.4977
2.048                   1.006473        143.0501
2.052                   1.004366        141.6397
2.056                   1.001045        140.2991
2.06                   0.9970618         139.051
2.064                  0.9930809        137.9043
2.068                  0.9897709        136.8517
2.072                   0.987689        135.8704
2.076                  0.9871844        134.9263
2.08                    0.988334        133.9792
2.084                  0.9909298        132.9911
2.088                  0.9945188        131.9326
2.092                  0.9984847        130.7881
2.096                   1.002157        129.5579
2.1                     1.004924        128.2573
2.104                    1.00633        126.9138
2.108                   1.006146        125.5622
2.112                   1.004404        124.2393
2.116                   1.001394        122.9786
2.12                    0.997614        121.8047
2.124                  0.9936948        120.7293
2.128                  0.9902964        119.7487
2.132                  0.9879957        118.8438
2.136                  0.9871836         117.983
2.14                   0.9879949        117.1277
2.144                  0.9902828        116.2395
2.148                  0.9936469        115.2874
2.152                  0.9975058        114.2528
2.156                   1.001201        113.1327
2.16                    1.004108        111.9396
2.164                    1.00574        110.6983
2.168                   1.005823        109.4423
2.172                   1.004339        108.2083
2.176                   1.001528        107.0304
2.18                   0.9978535        105.9351
2.184                  0.9939273        104.9367
2.188                  0.9904112        104.0342
2.192                  0.9879043        103.2112
2.196                  0.9868369        102.4377
2.2                    0.9873915        101.6757
2.204                  0.9894685        100.8861
2.208                  0.9927032        100.0359
2.212                   0.996534        99.10399
2.216                   1.000301        98.08478
2.22                     1.00336        96.98831
2.224                   1.005189        95.83803
2.228                   1.005474        94.66687
2.232                   1.004153        93.51186
2.236                   1.001434        92.40855
2.24                   0.9977559        91.38548
2.244                  0.9937285        90.45931
2.248                   0.990029        89.63154
2.252                  0.9872886        88.88746
2.256                  0.9859808        88.19801
2.26                   0.9863336         87.5248
2.264                  0.9882853        86.82703
2.268                  0.9914942         86.0692
2.272                  0.9954012        85.22753
2.276                  0.9993284        84.29386
2.28                    1.002597        83.27649
2.284                   1.004642        82.19818
2.288                     1.0051        81.09221
2.292                    1.00387        79.99704
2.296                   1.001131        78.95051
2.3                    0.9973167        77.98394
2.304                  0.9930503         77.1169
2.308                  0.9890442        76.35327
2.312                  0.9859816        75.67973
2.316                  0.9843941        75.06717
2.32                   0.9845639        74.47545
2.324                   0.986466        73.86069
2.328                  0.9897711         73.1836
2.332                  0.9939032        72.41665
2.336                  0.9981422        71.54874
2.34                    1.001749        70.58656
2.344                   1.004087        69.55286
2.348                   1.004728        68.48249
2.352                   1.003522        67.41687