! TOUCHSTONE file generated by CST MICROWAVE STUDIO
! Date and time: Tue Jun  7 19:07:17 2022
! Project name: AppElm_antenne_patch_FR4.cst
! Parameters = {L=45; W=52.65; e=0.035; h=1.6; lambda=0.190476; ls=120; w0=1.6; w1=0.533333; ws=120; y0=20; y1=23.8095}
! Header version: 2018
! Port assignment regex: !\s*Touchstone port\s*([0-9]+)\s*=\s*(CST MWS port|CST DS port)\s*([0-9]+|Zmin|Zmax)\s*\(\"(.*)\"\)(\s*mode\s*([0-9]+))?.*
! Touchstone port assignment:
! Touchstone port 1 = CST MWS port 1 ("")
# GHz S MA R 50
0                      0.9922852              -0
0.004                  0.9927159       -9.042773
0.008                  0.9939543       -18.02082
0.012                  0.9958456       -26.87193
0.016                  0.9981558       -35.53858
0.02                    1.000602       -43.96961
0.024                   1.002888       -52.12121
0.028                   1.004746       -59.95739
0.032                   1.005964       -67.45002
0.036                   1.006412       -74.57865
0.04                    1.006059       -81.33024
0.044                   1.004973       -87.69908
0.048                   1.003313       -93.68665
0.052                   1.001305       -99.30164
0.056                  0.9992182       -104.5597
0.06                   0.9973237       -109.4829
0.064                  0.9958631        -114.099
0.068                  0.9950142       -118.4396
0.072                  0.9948683       -122.5385
0.076                  0.9954185       -126.4291
0.08                   0.9965632       -130.1422
0.084                  0.9981216       -133.7041
0.088                  0.9998618       -137.1352
0.092                   1.001535        -140.449
0.096                   1.002909       -143.6531
0.1                     1.003801       -146.7494
0.104                   1.004103       -149.7358
0.108                   1.003791       -152.6083
0.112                   1.002932       -155.3626
0.116                   1.001667       -157.9959
0.12                    1.000196       -160.5087
0.124                  0.9987418       -162.9054
0.128                  0.9975232       -165.1951
0.132                  0.9967187       -167.3906
0.136                  0.9964407       -169.5076
0.14                   0.9967197       -171.5632
0.144                  0.9974999       -173.5736
0.148                  0.9986499       -175.5522
0.152                  0.9999846       -177.5085
0.156                   1.001293       -179.4469
0.16                    1.002374        178.6328
0.164                   1.003064        176.7357
0.168                   1.003263        174.8695
0.172                   1.002948        173.0436
0.176                   1.002178         171.267
0.18                     1.00108         169.547
0.184                  0.9998325        167.8871
0.188                  0.9986358        166.2868
0.192                  0.9976809        164.7411
0.196                   0.997118         163.241
0.2                    0.9970332        161.7749
0.204                  0.9974342        160.3302
0.208                  0.9982499         158.895
0.212                  0.9993427        157.4603
0.216                   1.000531        156.0209
0.22                    1.001621         154.576
0.224                   1.002435        153.1295
0.228                   1.002843        151.6887
0.232                   1.002782        150.2632
0.236                   1.002264        148.8631
0.24                    1.001378        147.4976
0.244                   1.000272        146.1729
0.248                  0.9991277        144.8915
0.252                  0.9981359        143.6516
0.256                  0.9974608         142.447
0.26                   0.9972124        141.2683
0.264                  0.9974308        140.1042
0.268                  0.9980762        138.9435
0.272                  0.9990381         137.777
0.276                   1.000153        136.5986
0.28                    1.001234        135.4068
0.284                   1.002099        134.2042
0.288                   1.002604        132.9975
0.292                   1.002665         131.796
0.296                   1.002274        130.6101
0.3                     1.001496        129.4495
0.304                   1.000464        128.3216
0.308                  0.9993524        127.2303
0.312                  0.9983488        126.1749
0.316                  0.9976246        125.1507
0.32                   0.9973029        124.1491
0.324                  0.9974383        123.1595
0.328                  0.9980072        122.1708
0.332                  0.9989114        121.1735
0.336                  0.9999957        120.1611
0.34                    1.001075        119.1315
0.344                   1.001963        118.0869
0.348                    1.00251        117.0336
0.352                   1.002623        115.9808
0.356                   1.002281         114.939
0.36                    1.001543        113.9184
0.364                   1.000535        112.9268
0.368                  0.9994297        111.9686
0.372                  0.9984177        111.0439
0.376                  0.9976742        110.1482
0.38                   0.9973286        109.2733
0.384                  0.9974417        108.4085
0.388                  0.9979945        107.5427
0.392                  0.9988914        106.6662
0.396                  0.9999772        105.7723
0.4                     1.001064        104.8588
0.404                   1.001962        103.9277
0.408                   1.002518        102.9855
0.412                   1.002633        102.0416
0.416                   1.002287        101.1067
0.42                    1.001539        100.1913
0.424                   1.000517        99.30347
0.428                  0.9993974        98.44787
0.432                  0.9983761        97.62445
0.436                   0.997632        96.82862
0.44                   0.9972966        96.05196
0.444                  0.9974301        95.28357
0.448                  0.9980107        94.51204
0.452                  0.9989376        93.72751
0.456                   1.000048        92.92339
0.46                    1.001149        92.09752
0.464                   1.002047         91.2524
0.468                   1.002584        90.39489
0.472                   1.002665        89.53481
0.476                   1.002274        88.68342
0.48                    1.001476        87.85135
0.484                   1.000411        87.04684
0.488                  0.9992624        86.27426
0.492                   0.998233        85.53327
0.496                  0.9975051        84.81871
0.5                    0.9972085        84.12155
0.504                  0.9973981        83.43039
0.508                  0.9980419        82.73349
0.512                  0.9990276        82.02094
0.516                   1.000182        81.28636
0.52                    1.001301        80.52808
0.524                   1.002186        79.74933
0.528                   1.002681        78.95768
0.532                   1.002696        78.16371
0.536                   1.002225        77.37914
0.54                    1.001349        76.61487
0.544                   1.000219        75.87904
0.548                  0.9990333        75.17553
0.552                  0.9980019        74.50326
0.556                   0.997309        73.85625
0.56                   0.9970801        73.22454
0.564                  0.9973586        72.59604
0.568                  0.9980972        71.95865
0.572                  0.9991661        71.30248
0.576                   1.000376        70.62162
0.58                    1.001513        69.91525
0.584                   1.002373        69.18753
0.588                   1.002803        68.44716
0.592                   1.002723        67.70554
0.596                   1.002144        66.97499
0.6                     1.001164        66.26657
0.604                   0.999955        65.58813
0.608                  0.9987302        64.94281
0.612                  0.9977077        64.32851
0.616                  0.9970722        63.73801
0.62                   0.9969403        63.16024
0.624                  0.9973389         62.5823
0.628                  0.9981997        61.99173
0.632                  0.9993709        61.37885
0.636                   1.000644         60.7385
0.64                    1.001792        60.07089
0.644                    1.00261        59.38159
0.648                   1.002948        58.68048
0.652                   1.002743        57.98006
0.656                   1.002028        57.29323
0.66                    1.000924         56.6311
0.664                  0.9996264        56.00097
0.668                  0.9983647        55.40504
0.672                  0.9973661        54.83976
0.676                  0.9968122        54.29643
0.68                   0.9968066        53.76271
0.684                  0.9973543        53.22478
0.688                  0.9983603        52.66992
0.692                  0.9996464        52.08886
0.696                   1.000983        51.47745
0.7                      1.00213        50.83731
0.704                   1.002881        50.17564
0.708                   1.003099        49.50377
0.712                   1.002738        48.83533
0.716                   1.001859        48.18378
0.72                    1.000613        47.56015
0.724                  0.9992199        46.97098
0.728                  0.9979287        46.41707
0.732                  0.9969728        45.89321
0.736                  0.9965281        45.38895
0.74                   0.9966792        44.89047
0.744                  0.9974037        44.38307
0.748                  0.9985747        43.85389
0.752                  0.9999838        43.29432
0.756                   1.001378        42.70153
0.76                    1.002506        42.07891
0.764                   1.003163         41.4355
0.768                   1.003226        40.78431
0.772                   1.002678        40.14013
0.776                   1.001609        39.51693
0.78                    1.000207        38.92541
0.784                  0.9987179        38.37104
0.788                  0.9974105        37.85295
0.792                  0.9965225        37.36388
0.796                  0.9962189        36.89139
0.8                    0.9965604        36.42005
0.804                  0.9974905        35.93433
0.808                   0.998845        35.42145
0.812                   1.000382        34.87376
0.816                   1.001824        34.29007
0.82                    1.002911         33.6759
0.824                   1.003442         33.0424
0.828                   1.003316         32.4044
0.832                   1.002547        31.77785
0.836                   1.001266        31.17711
0.84                   0.9996965        30.61231
0.844                  0.9981172        30.08751
0.848                  0.9968136        29.59974
0.852                  0.9960252        29.13938
0.856                  0.9959007        28.69176
0.86                   0.9964698        28.23978
0.864                  0.9976352        27.76717
0.868                  0.9991906        27.26146
0.872                   1.000857         26.7163
0.876                   1.002333        26.13261
0.88                     1.00335        25.51832
0.884                    1.00372        24.88696
0.888                   1.003367        24.25531
0.892                   1.002345        23.64049
0.896                   1.000829        23.05705
0.9                    0.9990849        22.51424
0.904                  0.9974249        22.01432
0.908                  0.9961508        21.55183
0.912                  0.9954994        21.11439
0.916                  0.9955967        20.68486
0.92                   0.9964336        20.24446
0.924                  0.9978652        19.77629
0.928                   0.999637        19.26852
0.932                    1.00143        18.71655
0.936                   1.002921        18.12378
0.94                    1.003834        17.50095
0.944                      1.004        16.86423
0.948                   1.003376        16.23248
0.952                   1.002063        15.62394
0.956                   1.000288        15.05311
0.96                   0.9983629        14.52806
0.964                  0.9966348        14.04874
0.968                  0.9954203        13.60673
0.972                  0.9949482        13.18652
0.976                  0.9953145        12.76826
0.98                   0.9964627        12.33143
0.984                  0.9981922        11.85875
0.988                   1.000195        11.33939
0.992                   1.002109        10.77093
0.996                   1.003587        10.15974
1                       1.004355        9.519796
1.004                   1.004265        8.870223
1.008                   1.003319        8.232039
1.012                   1.001671        7.624573
1.016                  0.9996081        7.062037
1.02                   0.9974944        6.550857
1.024                  0.9957126        6.088186
1.028                  0.9945927        5.662087
1.032                   0.994349        5.253453
1.036                  0.9950388        4.839451
1.04                   0.9965482        4.397828
1.044                  0.9986119        3.911122
1.048                   1.000861        3.369938
1.052                   1.002888        2.774593
1.056                   1.004322        2.134983
1.06                    1.004896        1.468783
1.064                   1.004489       0.7984088
1.068                   1.003158       0.1472354
1.072                   1.001123      -0.4643992
1.076                  0.9987374       -1.022829
1.08                   0.9964249       -1.523764
1.084                  0.9946069       -1.973479
1.088                  0.9936234       -2.388108
1.092                  0.9936683       -2.790927
1.096                  0.9947491        -3.20809
1.1                    0.9966829       -3.663643
1.104                  0.9991284       -4.174957
1.108                   1.001646       -4.749486
1.112                    1.00378       -5.383546
1.116                   1.005137       -6.063094
1.12                    1.005456       -6.766085
1.124                    1.00466        -7.46637
1.128                   1.002867       -8.137973
1.132                   1.000377       -8.759542
1.136                  0.9976224       -9.318256
1.14                   0.9950953       -9.812531
1.144                  0.9932598       -10.25288
1.148                  0.9924646       -10.66049
1.152                  0.9928742        -11.0636
1.156                  0.9944345       -11.49217
1.16                   0.9968783       -11.97216
1.164                  0.9997724       -12.52058
1.168                   1.002597       -13.14239
1.172                   1.004837       -13.82973
1.176                   1.006076       -14.56348
1.18                    1.006069       -15.31653
1.184                   1.004786       -16.05825
1.188                   1.002426       -16.75963
1.192                  0.9993836       -17.39818
1.196                  0.9961886       -17.96221
1.2                    0.9934149       -18.45357
1.204                  0.9915772       -18.88806
1.208                  0.9910322       -19.29317
1.212                  0.9919067        -19.7032
1.216                  0.9940678       -20.15275
1.22                   0.9971429          -20.67
1.224                   1.000587       -21.27135
1.228                   1.003778       -21.95852
1.232                   1.006133       -22.71848
1.236                   1.007207       -23.52585
1.24                    1.006773       -24.34717
1.244                   1.004863       -25.14632
1.248                   1.001776       -25.89037
1.252                  0.9980254       -26.55536
1.256                  0.9942664       -27.13097
1.26                   0.9911775       -27.62336
1.264                  0.9893392       -28.05517
1.268                  0.9891198       -28.46207
1.272                  0.9905975        -28.8863
1.276                  0.9935382       -29.36851
1.28                   0.9974327       -29.93977
1.284                   1.001589       -30.61573
1.288                   1.005255       -31.39399
1.292                   1.007755       -32.25485
1.296                   1.008601       -33.16491
1.3                     1.007588       -34.08235
1.304                   1.004826       -34.96363
1.308                   1.000742       -35.77038
1.312                  0.9960108       -36.47618
1.316                  0.9914562        -37.0721
1.32                    0.987905        -37.5699
1.324                  0.9860347       -38.00144
1.328                  0.9862371       -38.41381
1.332                  0.9885307       -38.86059
1.336                  0.9925452       -39.39123
1.34                   0.9975838       -40.04127
1.344                   1.002748       -40.82572
1.348                   1.007098        -41.7369
1.352                   1.009816        -42.7462
1.356                   1.010347       -43.80911
1.36                    1.008498       -44.87202
1.364                   1.004479       -45.88029
1.368                  0.9988904       -46.78679
1.372                  0.9926406       -47.56025
1.376                  0.9868079       -48.19249
1.38                   0.9824548        -48.7026
1.384                  0.9804277         -49.136
1.388                  0.9811781       -49.55758
1.392                  0.9846541       -50.03931
1.396                  0.9902914       -50.64557
1.4                     0.997108       -51.42028
1.404                   1.003881       -52.37899
1.408                    1.00936       -53.50715
1.412                    1.01248       -54.76349
1.416                   1.012541       -56.08685
1.42                    1.009328       -57.40494
1.424                    1.00317       -58.64423
1.428                   0.994922       -59.74086
1.432                  0.9858645       -60.65203
1.436                  0.9775217       -61.36691
1.44                   0.9714045       -61.91403
1.444                  0.9687191       -62.36147
1.448                  0.9700977        -62.8072
1.452                    0.97543       -63.36001
1.456                  0.9838459       -64.11651
1.46                    0.993861       -65.14142
1.464                   1.003638       -66.45682
1.468                   1.011299       -68.04104
1.472                   1.015226        -69.8346
1.476                   1.014313       -71.74978
1.48                    1.008146       -73.68132
1.484                  0.9971094       -75.51802
1.488                  0.9824078       -77.15643
1.492                  0.9659849       -78.51798
1.496                  0.9503071       -79.57007
1.5                    0.9379963       -80.34727
1.504                  0.9313237       -80.96362
1.508                  0.9316624       -81.60471
1.512                  0.9390575       -82.49451
1.516                  0.9520822       -83.84721
1.52                   0.9680269       -85.82464
1.524                    0.98333       -88.51623
1.528                  0.9940857        -91.9428
1.532                  0.9964927       -96.07424
1.536                  0.9871875       -100.8503
1.54                   0.9634598       -106.1972
1.544                  0.9233763       -112.0392
1.548                  0.8658382        -118.305
1.552                  0.7905914       -124.9318
1.556                  0.6982006       -131.8675
1.56                   0.5899962        -139.076
1.564                  0.4679962       -146.5489
1.568                  0.3348096       -154.3528
1.572                  0.1935385       -162.8939
1.576                 0.04802763       -178.0658
1.58                   0.1002825        9.349609
1.584                  0.2447592       -1.042663
1.588                  0.3833379       -9.237747
1.592                  0.5126007       -16.94004
1.596                  0.6296279       -24.36166
1.6                    0.7320273       -31.53188
1.604                  0.8180343       -38.42994
1.608                  0.8865999       -45.01329
1.612                  0.9374594       -51.22586
1.616                  0.9711746       -57.00143
1.62                    0.989147       -62.26644
1.624                  0.9935939       -66.94436
1.628                  0.9874714       -70.96379
1.632                  0.9743249       -74.27166
1.636                    0.95804       -76.85192
1.64                   0.9424706       -78.74653
1.644                  0.9309612       -80.07048
1.648                  0.9258445       -81.00859
1.652                  0.9280703       -81.78679
1.656                  0.9371181       -82.62464
1.66                   0.9512489       -83.68931
1.664                  0.9679915       -85.07003
1.668                   0.984694       -86.77807
1.672                  0.9989885       -88.76343
1.676                   1.009108        -90.9369
1.68                    1.014054       -93.19007
1.684                    1.01365       -95.41084
1.688                   1.008493       -97.49597
1.692                  0.9998354       -99.36191
1.696                  0.9893919       -100.9551
1.7                    0.9790852       -102.2612
1.704                  0.9707424       -103.3102
1.708                  0.9657898       -104.1745
1.712                  0.9650041       -104.9561
1.716                  0.9683884       -105.7666
1.72                   0.9752109       -106.7034
1.724                  0.9841894        -107.832
1.728                  0.9937653       -109.1772
1.732                   1.002393       -110.7244
1.736                   1.008785        -112.428
1.74                    1.012091        -114.222
1.744                   1.011982        -116.031
1.748                   1.008676       -117.7813
1.752                   1.002878       -119.4096
1.756                  0.9956606       -120.8723
1.76                   0.9883012       -122.1517
1.764                   0.982069       -123.2606
1.768                  0.9780138       -124.2411
1.772                  0.9767831       -125.1575
1.776                  0.9785132       -126.0843
1.78                   0.9828205       -127.0908
1.784                  0.9888955       -128.2288
1.788                   0.995669       -129.5237
1.792                   1.002012       -130.9731
1.796                   1.006923       -132.5498
1.8                     1.009681       -134.2088
1.804                   1.009936       -135.8948
1.808                   1.007748       -137.5509
1.812                   1.003564       -139.1266
1.816                  0.9981374       -140.5845
1.82                    0.992412       -141.9067
1.824                  0.9873639       -143.0976
1.828                  0.9838405       -144.1847
1.832                  0.9824125       -145.2133
1.836                  0.9832781       -146.2388
1.84                   0.9862342       -147.3156
1.844                  0.9907273       -148.4872
1.848                  0.9959643       -149.7787
1.852                    1.00106       -151.1938
1.856                   1.005189       -152.7159
1.86                    1.007714       -154.3123
1.864                   1.008278       -155.9402
1.868                    1.00685       -157.5535
1.872                   1.003717       -159.1093
1.876                  0.9994383       -160.5745
1.88                   0.9947489       -161.9307
1.884                  0.9904451       -163.1773
1.888                   0.987248       -164.3324
1.892                  0.9856812         -165.43
1.896                   0.985981       -166.5135
1.9                    0.9880588       -167.6279
1.904                  0.9915243       -168.8115
1.908                  0.9957645       -170.0889
1.912                   1.000056       -171.4675
1.916                   1.003691       -172.9378
1.92                    1.006093       -174.4753
1.924                     1.0069       -176.0459
1.928                   1.006019       -177.6108
1.932                   1.003632       -179.1326
1.936                    1.00016         179.419
1.94                   0.9961996        178.0627
1.944                  0.9924211        176.8024
1.948                  0.9894587        175.6263
1.952                  0.9878014        174.5083
1.956                  0.9877099         173.413
1.96                   0.9891722        172.3019
1.964                  0.9919113        171.1407
1.968                  0.9954401        169.9053
1.972                  0.9991513        168.5857
1.976                   1.002425        167.1867
1.98                    1.004729        165.7268
1.984                   1.005704        164.2339
1.988                   1.005216        162.7413
1.992                   1.003372        161.2821
1.996                   1.000497        159.8845
2                      0.9970852        158.5672
2.004                  0.9937151        157.3362
2.008                  0.9909541         156.184
2.012                  0.9892619        155.0901
2.016                  0.9889105        154.0247
2.02                   0.9899393        152.9542
2.024                  0.9921492        151.8475
2.028                  0.9951448        150.6813
2.032                   0.998406        149.4439
2.036                    1.00138        148.1372
2.04                    1.003577         146.775
2.044                   1.004644        145.3808
2.048                   1.004423        143.9836
2.052                    1.00297        142.6132
2.056                   1.000542        141.2956
2.06                   0.9975578        140.0492
2.064                  0.9945256        138.8814
2.068                  0.9919582        137.7872
2.072                   0.990286          136.75
2.076                  0.9897818        135.7443
2.08                   0.9905151        134.7405
2.084                  0.9923403        133.7098
2.088                  0.9949277        132.6302
2.092                  0.9978235        131.4894
2.096                   1.000532        130.2871
2.1                     1.002599        129.0343
2.104                   1.003688        127.7508
2.108                   1.003629        126.4624
2.112                   1.002446         125.196
2.116                   1.000352        123.9758
2.12                   0.9977073        122.8192
2.124                  0.9949647        121.7342
2.128                  0.9925905        120.7174
2.132                  0.9909844        119.7549
2.136                  0.9904113        118.8244
2.14                    0.990954        117.8993
2.144                  0.9925011        116.9534
2.148                  0.9947703        115.9659
2.152                  0.9973597        114.9246
2.156                  0.9998208         113.828
2.16                    1.001736        112.6852
2.164                   1.002788        111.5136
2.168                   1.002809        110.3361
2.172                   1.001807        109.1771
2.176                  0.9999612         108.059
2.18                   0.9975914        106.9981
2.184                  0.9951044         106.002
2.188                  0.9929238        105.0685
2.192                   0.991418        104.1854
2.196                  0.9908352        103.3329
2.2                     0.991261        102.4868
2.204                  0.9926042        101.6235
2.208                  0.9946159        100.7236
2.212                  0.9969368        99.77559
2.216                  0.9991608        98.77765
2.22                    1.000907        97.73737
2.224                   1.001881         96.6703
2.228                   1.001926        95.59706
2.232                   1.001044        94.53988
2.236                  0.9993911        93.51903
2.24                   0.9972549        92.54951
2.244                  0.9950019        91.63844
2.248                  0.9930158        90.78392
2.252                  0.9916312         89.9751
2.256                  0.9910748        89.19417
2.26                   0.9914264        88.41943
2.264                  0.9926071         87.6294
2.268                  0.9943951         86.8065
2.272                   0.996467         85.9403
2.276                  0.9984577         85.0289
2.28                    1.000023        84.07901
2.284                   1.000898        83.10456
2.288                    1.00094        82.12402
2.292                   1.000148        81.15741
2.296                  0.9986635        80.22299
2.3                    0.9967434        79.33416
2.304                   0.994716        78.49733
2.308                  0.9929243        77.71073
2.312                   0.991667        76.96468
2.316                  0.9911463        76.24327
2.32                   0.9914339         75.5272
2.324                  0.9924595        74.79734
2.328                  0.9940267        74.03811
2.332                  0.9958494        73.24013
2.336                  0.9976042        72.40163
2.34                   0.9989862        71.52852
2.344                  0.9997608        70.63299
2.348                  0.9998004        69.73138
2.352                  0.9991042        68.84133