! TOUCHSTONE file generated by CST MICROWAVE STUDIO
! Date and time: Tue Jun  7 19:07:23 2022
! Project name: AppElm_antenne_patch_FR4.cst
! Parameters = {L=45; W=73.125; e=0.035; h=1.6; lambda=0.190476; ls=120; w0=1.6; w1=0.533333; ws=120; y0=20; y1=23.8095}
! Header version: 2018
! Port assignment regex: !\s*Touchstone port\s*([0-9]+)\s*=\s*(CST MWS port|CST DS port)\s*([0-9]+|Zmin|Zmax)\s*\(\"(.*)\"\)(\s*mode\s*([0-9]+))?.*
! Touchstone port assignment:
! Touchstone port 1 = CST MWS port 1 ("")
# GHz S MA R 50
0                       0.971907              -0
0.004                  0.9735906       -11.96892
0.008                  0.9783939       -23.78533
0.012                  0.9856186        -35.3093
0.016                  0.9942392       -46.42262
0.02                    1.003073       -57.03287
0.024                   1.010961       -67.07259
0.028                   1.016924       -76.49556
0.032                   1.020287       -85.27219
0.036                   1.020745       -93.38563
0.04                    1.018394         -100.83
0.044                     1.0137         -107.61
0.048                   1.007436       -113.7431
0.052                    1.00057       -119.2621
0.056                  0.9941274       -124.2169
0.06                   0.9890391       -128.6755
0.064                  0.9859963       -132.7202
0.068                  0.9853429       -136.4414
0.072                  0.9870303       -139.9281
0.076                   0.990641        -143.258
0.08                   0.9954773       -146.4897
0.084                   1.000694       -149.6588
0.088                    1.00544       -152.7778
0.092                   1.008996       -155.8393
0.096                   1.010871       -158.8218
0.1                     1.010864        -161.696
0.104                   1.009077        -164.431
0.108                   1.005888       -167.0011
0.112                   1.001885       -169.3903
0.116                  0.9977649       -171.5967
0.12                   0.9942206       -173.6342
0.124                  0.9918261       -175.5311
0.128                  0.9909408       -177.3265
0.132                  0.9916528       -179.0645
0.136                  0.9937726        179.2138
0.14                   0.9968776         177.476
0.144                   1.000396        175.7035
0.148                   1.003712        173.8929
0.152                   1.006272        172.0549
0.156                    1.00767        170.2115
0.16                    1.007712        168.3907
0.164                   1.006436        166.6223
0.168                   1.004097        164.9323
0.172                   1.001126        163.3386
0.176                  0.9980508         161.848
0.18                   0.9954051        160.4545
0.184                   0.993639          159.14
0.188                  0.9930388        157.8773
0.192                  0.9936792        156.6351
0.196                  0.9954146        155.3831
0.2                    0.9979112        154.0981
0.204                   1.000712        152.7671
0.208                    1.00332         151.389
0.212                   1.005289        149.9745
0.216                   1.006291         148.543
0.22                    1.006175        147.1192
0.224                   1.004983        145.7291
0.228                    1.00294         144.395
0.232                   1.000417        143.1324
0.236                  0.9978609        141.9469
0.24                   0.9957225        140.8331
0.244                  0.9943725        139.7755
0.248                   0.994038        138.7508
0.252                  0.9947621        137.7328
0.256                   0.996399        136.6963
0.26                   0.9986432        135.6227
0.264                   1.001089        134.5023
0.268                   1.003302         133.336
0.272                   1.004899        132.1345
0.276                   1.005609        130.9163
0.28                    1.005322        129.7042
0.284                   1.004098        128.5212
0.288                   1.002162        127.3872
0.292                  0.9998602        126.3151
0.296                  0.9976025        125.3085
0.3                    0.9957887        124.3615
0.304                  0.9947372        123.4586
0.308                  0.9946293        122.5783
0.312                  0.9954751        121.6966
0.316                  0.9971145        120.7916
0.32                   0.9992472        119.8475
0.324                    1.00149        118.8571
0.328                   1.003446         117.823
0.332                   1.004773        116.7567
0.336                   1.005243        115.6765
0.34                    1.004782         114.604
0.344                   1.003476        113.5608
0.348                    1.00156        112.5643
0.352                  0.9993743        111.6255
0.356                  0.9973089        110.7462
0.36                   0.9957308        109.9188
0.364                  0.9949199        109.1276
0.368                   0.995018        108.3516
0.372                  0.9960026        107.5681
0.376                  0.9976921        106.7571
0.38                   0.9997805        105.9052
0.384                   1.001893        105.0074
0.388                   1.003656         104.068
0.392                    1.00476        103.0996
0.396                   1.005012        102.1207
0.4                     1.004373        101.1525
0.404                   1.002956        100.2152
0.408                   1.001015        99.32485
0.412                  0.9988933        98.49012
0.416                  0.9969699        97.71096
0.42                   0.9955882        96.97829
0.424                  0.9949953        96.27546
0.428                   0.995296        95.58135
0.432                  0.9964341        94.87412
0.436                  0.9982023        94.13548
0.44                    1.000282        93.35386
0.444                   1.002301        92.52642
0.448                   1.003901        91.65935
0.452                   1.004799        90.76649
0.456                   1.004839        89.86694
0.46                    1.004013        88.98168
0.464                   1.002468        88.13002
0.468                   1.000478        87.32635
0.472                   0.998396        86.57749
0.476                  0.9965942        85.88133
0.48                   0.9953963        85.22696
0.484                   0.995018        84.59663
0.488                  0.9955278        83.96881
0.492                  0.9968328        83.32236
0.496                  0.9986975        82.64038
0.5                     1.000787        81.91324
0.504                   1.002726        81.14028
0.508                   1.004171        80.32962
0.512                   1.004866        79.49659
0.516                   1.004686        78.66103
0.52                    1.003664        77.84391
0.524                   1.001977        77.06365
0.528                  0.9999255         76.3331
0.532                  0.9978737        75.65702
0.536                    0.99619        75.03111
0.54                   0.9951782        74.44257
0.544                   0.995022        73.87227
0.548                  0.9957513        73.29827
0.552                   0.997235        72.69994
0.556                  0.9992056        72.06182
0.56                     1.00131        71.37638
0.564                    1.00317        70.64515
0.568                   1.004455        69.87839
0.572                   1.004936        69.09303
0.576                   1.004526        68.30974
0.58                    1.003294        67.54949
0.584                   1.001456        66.82986
0.588                  0.9993389        66.16195
0.592                  0.9973193        65.54841
0.596                  0.9957611        64.98254
0.6                    0.9949476        64.44943
0.604                  0.9950281        63.92853
0.608                  0.9959904        63.39744
0.612                  0.9976623        62.83617
0.616                  0.9997429        62.23078
0.62                    1.001859        61.57594
0.624                   1.003631        60.87565
0.628                   1.004743        60.14235
0.632                   1.004994        59.39469
0.636                   1.004336        58.65424
0.64                    1.002884        57.94189
0.644                    1.00089        57.27419
0.648                  0.9987096        56.66047
0.652                  0.9967323         56.1009
0.656                  0.9953159         55.5863
0.66                   0.9947199        55.09947
0.664                  0.9950554        54.61843
0.668                  0.9962652        54.12036
0.672                  0.9981325        53.58603
0.676                   1.000322        53.00327
0.68                     1.00244        52.36915
0.684                   1.004107        51.69026
0.688                   1.005024        50.98144
0.692                   1.005024        50.26307
0.696                   1.004103         49.5576
0.7                     1.002419         48.8857
0.704                   1.000267        48.26279
0.708                  0.9980309        47.69609
0.712                  0.9961121        47.18315
0.716                  0.9948594        46.71202
0.72                   0.9945043        46.26319
0.724                  0.9951157        45.81316
0.728                  0.9965866        45.33888
0.732                  0.9986536        44.82208
0.736                   1.000945        44.25261
0.74                     1.00305        43.63019
0.744                    1.00459        42.96422
0.748                   1.005286          42.272
0.752                   1.005011        41.57568
0.756                   1.003806        40.89851
0.76                    1.001881        40.26086
0.764                  0.9995721        39.67669
0.768                  0.9972926        39.15087
0.772                  0.9954536        38.67805
0.776                  0.9943916        38.24333
0.78                   0.9943046        37.82475
0.784                  0.9952141        37.39742
0.788                  0.9969598        36.93818
0.792                  0.9992289           36.43
0.796                   1.001613        35.86506
0.8                     1.003684        35.24598
0.804                   1.005069        34.58515
0.808                   1.005516        33.90246
0.812                   1.004939        33.22184
0.816                   1.003432        32.56723
0.82                    1.001256        31.95846
0.824                   0.998795        31.40778
0.828                  0.9964891        30.91742
0.832                  0.9947564        30.47881
0.836                  0.9939163        30.07388
0.84                   0.9941284        29.67817
0.844                   0.995361        29.26547
0.848                  0.9973955        28.81277
0.852                  0.9998671        28.30458
0.856                   1.002332         27.7357
0.86                    1.004346        27.11196
0.864                   1.005545        26.44894
0.868                    1.00571        25.76923
0.872                   1.004802        25.09851
0.876                   1.002973        24.46126
0.88                    1.000539        23.87659
0.884                  0.9979327        23.35471
0.888                  0.9956204        22.89483
0.892                  0.9940243        22.48487
0.896                  0.9934416        22.10335
0.9                    0.9939868        21.72329
0.904                  0.9955689        21.31724
0.908                  0.9979067         20.8626
0.912                   1.000581        20.34578
0.916                   1.003111        19.76456
0.92                    1.005041        19.12825
0.924                   1.006021        18.45587
0.928                   1.005867        17.77279
0.932                   1.004596        17.10643
0.936                   1.002422        16.48171
0.94                   0.9997229         15.9167
0.944                  0.9969772        15.41926
0.948                  0.9946804        14.98518
0.952                  0.9932544        14.59851
0.956                  0.9929678        14.23416
0.96                   0.9938837        13.86251
0.964                  0.9958446        13.45505
0.968                  0.9985018        12.98984
0.972                   1.001379        12.45556
0.976                   1.003958        11.85336
0.98                    1.005774        11.19638
0.984                   1.006496        10.50729
0.988                   1.005984        9.814375
0.992                   1.004313        9.146823
0.996                   1.001766        8.529837
1                      0.9987889         7.98021
1.004                  0.9959095        7.503037
1.008                  0.9936506        7.090276
1.012                  0.9924302        6.721685
1.016                  0.9924829        6.368266
1.02                    0.993812        5.997677
1.024                  0.9961866        5.580453
1.028                  0.9991838        5.095634
1.032                   1.002266        4.534548
1.036                    1.00488        3.902119
1.04                    1.006551        3.215704
1.044                   1.006972        2.501932
1.048                   1.006052          1.7922
1.052                   1.003935        1.117503
1.056                   1.000981       0.5032367
1.06                   0.9977062     -0.03535652
1.064                   0.994694      -0.4963535
1.068                  0.9924941      -0.8921547
1.072                   0.991518       -1.247796
1.076                  0.9919592       -1.596564
1.08                    0.993753       -1.973695
1.084                   0.996586       -2.409533
1.088                   0.999953       -2.923785
1.092                   1.003251       -3.522044
1.096                   1.005886        -4.19513
1.1                      1.00738       -4.921032
1.104                   1.007451       -5.668693
1.108                   1.006064       -6.403347
1.112                   1.003443       -7.092049
1.116                   1.000032       -7.709197
1.12                   0.9964265       -8.241405
1.124                  0.9932733       -8.690313
1.128                  0.9911507       -9.073382
1.132                  0.9904611       -9.421088
1.136                  0.9913505       -9.771576
1.14                   0.9936759       -10.16329
1.144                  0.9970296       -10.62748
1.148                   1.000814       -11.18234
1.152                   1.004352       -11.82993
1.156                   1.007005       -12.55624
1.16                    1.008287       -13.33393
1.164                   1.007949       -14.12706
1.168                   1.006021       -14.89689
1.172                   1.002812       -15.60814
1.176                  0.9988678       -16.23498
1.18                    0.994877       -16.76597
1.184                  0.9915573       -17.20704
1.188                  0.9895233       -17.58141
1.192                  0.9891681         -17.926
1.196                  0.9905827        -18.2847
1.2                    0.9935334       -18.69977
1.204                  0.9975025       -19.20359
1.208                   1.001783       -19.81263
1.212                   1.005609        -20.5249
1.216                   1.008289        -21.3208
1.22                    1.009326       -22.16682
1.224                   1.008503       -23.02112
1.228                   1.005924       -23.84018
1.232                   1.002003       -24.58568
1.236                  0.9974002       -25.23115
1.24                   0.9929219       -25.76728
1.244                  0.9893763       -26.20485
1.248                  0.9874265        -26.5741
1.252                  0.9874598       -26.91991
1.256                  0.9895054       -27.29341
1.26                   0.9932217       -27.74182
1.264                  0.9979566       -28.29922
1.268                   1.002868       -28.98032
1.272                   1.007076       -29.77845
1.276                   1.009816       -30.66734
1.28                    1.010569       -31.60595
1.284                    1.00915       -32.54498
1.288                   1.005747       -33.43456
1.292                   1.000897       -34.23196
1.296                  0.9954143       -34.90912
1.3                    0.9902531       -35.45873
1.304                  0.9863493       -35.89728
1.308                  0.9844427       -36.26392
1.312                  0.9849268       -36.61408
1.316                  0.9877619       -37.00889
1.32                   0.9924733       -37.50283
1.324                  0.9982346       -38.13306
1.328                   1.004021       -38.91277
1.332                   1.008792       -39.82982
1.336                   1.011671       -40.84961
1.34                    1.012088       -41.92122
1.344                   1.009884       -42.98516
1.348                   1.005342       -43.98217
1.352                    0.99916       -44.86224
1.356                  0.9923541       -45.59358
1.36                   0.9861021       -46.16998
1.364                  0.9815391       -46.61482
1.368                  0.9795419       -46.97947
1.372                  0.9805447       -47.33498
1.376                  0.9844356       -47.75818
1.38                   0.9905626        -48.3159
1.384                  0.9978509       -49.05169
1.388                   1.004999       -49.97838
1.392                   1.010706       -51.07734
1.396                   1.013894       -52.30286
1.4                     1.013881       -53.58984
1.404                   1.010495       -54.86311
1.408                   1.004125       -56.04758
1.412                  0.9956879       -57.07937
1.416                  0.9865135       -57.91713
1.42                   0.9781525        -58.5526
1.424                  0.9721119       -59.01724
1.428                  0.9695636       -59.38151
1.432                  0.9710843       -59.74404
1.436                  0.9765056       -60.21198
1.44                   0.9849161       -60.87829
1.444                  0.9948219       -61.80295
1.448                   1.004415        -63.0034
1.452                   1.011881       -64.45443
1.456                    1.01569       -66.09471
1.46                    1.014833       -67.83665
1.464                    1.00898       -69.57736
1.468                  0.9985744       -71.21012
1.472                  0.9848266       -72.63801
1.476                   0.969617       -73.79011
1.48                    0.955269       -74.64053
1.484                  0.9441896       -75.22603
1.488                  0.9384002       -75.65416
1.492                  0.9390521       -76.09303
1.496                  0.9460709       -76.73992
1.5                    0.9580592       -77.77843
1.504                  0.9724912       -79.34199
1.508                   0.986108        -81.4962
1.512                   0.995378       -84.24119
1.516                  0.9969043       -87.52502
1.52                   0.9877336       -91.25885
1.524                   0.965563       -95.32751
1.528                  0.9288707       -99.59255
1.532                  0.8769975       -103.8864
1.536                  0.8102098       -107.9941
1.54                   0.7297834       -111.6155
1.544                  0.6381817       -114.2899
1.548                  0.5394937       -115.2435
1.552                  0.4405458       -113.0997
1.556                  0.3535268       -105.5353
1.56                   0.2997524       -90.31331
1.564                  0.3026161       -70.95062
1.568                  0.3599129       -56.55896
1.572                  0.4469228       -49.69058
1.576                  0.5434549       -47.91206
1.58                   0.6383615       -49.01009
1.584                  0.7255595        -51.6979
1.588                  0.8015685       -55.25217
1.592                  0.8644693       -59.24154
1.596                  0.9134677       -63.38691
1.6                    0.9486911       -67.49222
1.604                  0.9710642        -71.4104
1.608                  0.9822021       -75.02732
1.612                  0.9842841       -78.25652
1.616                  0.9798913       -81.04065
1.62                   0.9717956       -83.35702
1.624                  0.9626996       -85.22401
1.628                  0.9549498       -86.70403
1.632                  0.9502673       -87.89851
1.636                   0.949561       -88.93299
1.64                   0.9528819        -89.9348
1.644                  0.9595375       -91.01048
1.648                  0.9683291       -92.22999
1.652                  0.9778443       -93.62177
1.656                  0.9867315       -95.17685
1.66                   0.9939081       -96.85879
1.664                  0.9986857        -98.6151
1.668                   1.000814       -100.3881
1.672                   1.000459       -102.1237
1.676                  0.9981218       -103.7785
1.68                   0.9945297       -105.3249
1.684                  0.9905004       -106.7532
1.688                  0.9868068       -108.0724
1.692                  0.9840605       -109.3067
1.696                   0.982632       -110.4902
1.7                    0.9826205       -111.6607
1.704                  0.9838766       -112.8519
1.708                  0.9860658        -114.089
1.712                  0.9887573       -115.3852
1.716                  0.9915143       -116.7423
1.72                   0.9939702       -118.1524
1.724                  0.9958778       -119.6016
1.728                  0.9971263       -121.0736
1.732                  0.9977303       -122.5535
1.736                  0.9977959       -124.0298
1.74                   0.9974771       -125.4962
1.744                  0.9969293       -126.9508
1.748                  0.9962738       -128.3958
1.752                  0.9955791       -129.8347
1.756                  0.9948598       -131.2711
1.76                   0.9940973       -132.7066
1.764                  0.9932674       -134.1403
1.768                  0.9923726       -135.5691
1.772                  0.9914667       -136.9887
1.776                  0.9906633       -138.3963
1.78                    0.990125       -139.7917
1.784                  0.9900332       -141.1801
1.788                  0.9905437       -142.5719
1.792                  0.9917375       -143.9823
1.796                  0.9935801       -145.4294
1.8                    0.9958989       -146.9303
1.804                  0.9983896       -148.4981
1.808                   1.000651        -150.138
1.812                   1.002244       -151.8453
1.816                   1.002772       -153.6052
1.82                    1.001957       -155.3933
1.824                  0.9997073       -157.1791
1.828                  0.9961677       -158.9301
1.832                  0.9917255       -160.6173
1.836                  0.9869838        -162.221
1.84                   0.9826833       -163.7365
1.844                  0.9795889       -165.1781
1.848                  0.9783483       -166.5797
1.852                  0.9793524       -167.9917
1.856                  0.9826272       -169.4733
1.86                   0.9877874        -171.082
1.864                  0.9940656       -172.8627
1.868                   1.000415       -174.8401
1.872                   1.005664       -177.0134
1.876                   1.008695       -179.3572
1.88                    1.008622        178.1763
1.884                    1.00494        175.6512
1.888                  0.9976442        173.1406
1.892                  0.9872838        170.7179
1.896                  0.9749619         168.445
1.9                    0.9622445        166.3592
1.904                  0.9509718        164.4577
1.908                  0.9429685         162.686
1.912                  0.9396812        160.9339
1.916                  0.9418215        159.0461
1.92                   0.9491113        156.8469
1.924                  0.9602217        154.1703
1.928                   0.972918         150.886
1.932                  0.9843544        146.9107
1.936                  0.9914267         142.205
1.94                   0.9911031        136.7614
1.944                  0.9806898        130.5877
1.948                  0.9580319        123.6911
1.952                   0.921654        116.0622
1.956                  0.8708694        107.6573
1.96                   0.8058769        98.37335
1.964                  0.7278921        88.00666
1.968                  0.6393871        76.17678
1.972                  0.5446171        62.18342
1.976                  0.4508271        44.76655
1.98                   0.3707398         21.9644
1.984                  0.3249137       -7.517793
1.988                  0.3328743       -39.83044
1.992                  0.3908652        -67.5923
1.996                  0.4769938       -88.75389
2                      0.5726698       -105.1283
2.004                  0.6668118        -118.508
2.008                  0.7529519       -129.9698
2.012                  0.8271651       -140.1022
2.016                   0.887134       -149.2197
2.02                   0.9317573       -157.4827
2.024                  0.9609871       -164.9612
2.028                  0.9757486       -171.6692
2.032                  0.9778794        -177.587
2.036                  0.9700474        177.3203
2.04                   0.9556096        173.0835
2.044                  0.9383732        169.7046
2.048                  0.9222248        167.1306
2.052                   0.910627        165.2322
2.056                  0.9060598        163.8034
2.06                   0.9095728        162.5897
2.064                  0.9206381        161.3416
2.068                  0.9373805        159.8674
2.072                  0.9570917        158.0633
2.076                  0.9768243        155.9137
2.08                   0.9939032        153.4714
2.084                   1.006278        150.8335
2.088                   1.012719        148.1192
2.092                   1.012892         145.454
2.096                   1.007338        142.9567
2.1                    0.9973721        140.7282
2.104                   0.984909        138.8401
2.108                  0.9722014        137.3215
2.112                  0.9615037        136.1498
2.116                  0.9546968        135.2477
2.12                   0.9529433        134.4941
2.124                  0.9564708         133.748
2.128                  0.9645553         132.879
2.132                  0.9757107        131.7941
2.136                  0.9880184        130.4516
2.14                   0.9994961        128.8609
2.144                   1.008422        127.0732
2.148                   1.013573        125.1673
2.152                   1.014364        123.2365
2.156                   1.010892        121.3761
2.16                    1.003904        119.6715
2.164                  0.9946813        118.1881
2.168                  0.9848473        116.9602
2.172                  0.9761193        115.9837
2.176                  0.9700165        115.2128
2.18                   0.9675849        114.5665
2.184                  0.9691999        113.9433
2.188                   0.974504        113.2426
2.192                  0.9824995        112.3856
2.196                  0.9917654        111.3287
2.2                     1.000734        110.0682
2.204                   1.007964        108.6358
2.208                   1.012359        107.0898
2.212                   1.013319        105.5044
2.216                   1.010805        103.9583
2.22                    1.005329        102.5249
2.224                  0.9978763        101.2616
2.228                  0.9897505        100.2011
2.232                  0.9823676        99.34446
2.236                   0.977015        98.65849
2.24                   0.9746176        98.08005
2.244                  0.9755632         97.5276
2.248                  0.9796336        96.91769
2.252                    0.98606        96.18217
2.256                  0.9936861        95.28047
2.26                    1.001193        94.20471
2.264                   1.007335        92.97806
2.268                   1.011136        91.64795
2.272                   1.012033        90.27706
2.276                   1.009948        88.93373
2.28                    1.005288        87.68226
2.284                  0.9988817         86.5737
2.288                  0.9918471        85.63766
2.292                  0.9854118         84.8762
2.296                  0.9807011        84.26168
2.3                    0.9785339        83.74037
2.304                  0.9792679        83.24224
2.308                  0.9827342        82.69498
2.312                  0.9882785        82.03859
2.316                   0.994898        81.23642
2.32                    1.001435        80.28032
2.324                   1.006783        79.18958
2.328                   1.010069        78.00561
2.332                   1.010784        76.78409
2.336                   1.008854        75.58619
2.34                    1.004642        74.46953
2.344                  0.9988884        73.47981
2.348                  0.9925977         72.6432
2.352                  0.9868683         71.9609