! TOUCHSTONE file generated by CST MICROWAVE STUDIO
! Date and time: Tue Jun  7 19:07:15 2022
! Project name: AppElm_antenne_patch_FR4.cst
! Parameters = {L=45; W=46.8; e=0.035; h=1.6; lambda=0.190476; ls=120; w0=1.6; w1=0.533333; ws=120; y0=20; y1=23.8095}
! Header version: 2018
! Port assignment regex: !\s*Touchstone port\s*([0-9]+)\s*=\s*(CST MWS port|CST DS port)\s*([0-9]+|Zmin|Zmax)\s*\(\"(.*)\"\)(\s*mode\s*([0-9]+))?.*
! Touchstone port assignment:
! Touchstone port 1 = CST MWS port 1 ("")
# GHz S MA R 50
0                      0.9943408              -0
0.004                  0.9946372       -8.132229
0.008                  0.9954936        -16.2193
0.012                  0.9968141       -24.21736
0.016                   0.998451         -32.085
0.02                    1.000222       -39.78422
0.024                    1.00193       -47.28112
0.028                   1.003386       -54.54629
0.032                   1.004428       -61.55509
0.036                   1.004943       -68.28769
0.04                    1.004877       -74.72919
0.044                   1.004242       -80.86971
0.048                   1.003117       -86.70448
0.052                   1.001642       -92.23404
0.056                   0.999995       -97.46438
0.06                   0.9983812       -102.4068
0.064                  0.9970009       -107.0777
0.068                  0.9960264       -111.4978
0.072                  0.9955791       -115.6909
0.076                  0.9957118       -119.6826
0.08                   0.9964006       -123.4983
0.084                  0.9975478       -127.1615
0.088                  0.9989934       -130.6922
0.092                   1.000538       -134.1056
0.096                   1.001968       -137.4119
0.1                      1.00309       -140.6159
0.104                    1.00375       -143.7183
0.108                    1.00386       -146.7163
0.112                   1.003411       -149.6054
0.116                   1.002473       -152.3813
0.12                    1.001185       -155.0412
0.124                  0.9997385       -157.5854
0.128                  0.9983487       -160.0183
0.132                  0.9972236       -162.3484
0.136                  0.9965315       -164.5883
0.14                    0.996376       -166.7534
0.144                  0.9967786       -168.8604
0.148                   0.997675        -170.925
0.152                  0.9989247       -172.9602
0.156                   1.000333       -174.9749
0.16                    1.001681       -176.9731
0.164                    1.00276       -178.9534
0.168                   1.003404        179.0898
0.172                   1.003513        177.1655
0.176                   1.003072        175.2839
0.18                    1.002151        173.4551
0.184                   1.000897        171.6866
0.188                   0.999509        169.9822
0.192                  0.9982088         168.341
0.196                  0.9972055        166.7573
0.2                    0.9966611        165.2206
0.204                  0.9966634         163.718
0.208                  0.9972111        162.2351
0.212                  0.9982141         160.759
0.216                  0.9995071        159.2798
0.22                    1.000879        157.7924
0.224                   1.002103        156.2967
0.228                   1.002982        154.7977
0.232                    1.00337        153.3046
0.236                   1.003204        151.8288
0.24                    1.002511        150.3823
0.244                   1.001404        148.9757
0.248                   1.000064        147.6161
0.252                  0.9987132        146.3058
0.256                  0.9975758        145.0421
0.26                   0.9968427        143.8171
0.264                  0.9966364        142.6192
0.268                  0.9969928        141.4347
0.272                  0.9978516        140.2503
0.276                  0.9990686        139.0552
0.28                    1.000439         137.843
0.284                   1.001732        136.6124
0.288                    1.00273        135.3676
0.292                   1.003265        134.1173
0.296                   1.003248        132.8732
0.3                      1.00268        131.6483
0.304                   1.001654        130.4542
0.308                   1.000343        129.2997
0.312                  0.9989668        128.1888
0.316                  0.9977603        127.1202
0.32                   0.9969294        126.0872
0.324                  0.9966172        125.0787
0.328                  0.9968787        124.0813
0.332                  0.9976703        123.0811
0.336                  0.9988568        122.0667
0.34                    1.000236        121.0308
0.344                   1.001572        119.9716
0.348                   1.002636        118.8926
0.352                   1.003246        117.8024
0.356                   1.003297        116.7131
0.36                     1.00278         115.638
0.364                   1.001779        114.5897
0.368                   1.000466        113.5775
0.372                  0.9990638        112.6065
0.376                  0.9978146         111.676
0.38                   0.9969351        110.7794
0.384                  0.9965795        109.9059
0.388                  0.9968117        109.0416
0.392                   0.997593        108.1726
0.396                  0.9987893        107.2867
0.4                     1.000194        106.3764
0.404                   1.001564        105.4393
0.408                   1.002662        104.4793
0.412                   1.003299         103.505
0.416                   1.003362         102.529
0.42                    1.002839         101.565
0.424                   1.001817         100.626
0.428                   1.000472        99.72221
0.432                  0.9990357        98.85861
0.436                  0.9977574        98.03453
0.44                   0.9968617        97.24341
0.444                  0.9965075        96.47386
0.448                  0.9967594         95.7117
0.452                  0.9975754        94.94232
0.456                   0.998814         94.1535
0.46                     1.00026        93.33743
0.464                    1.00166        92.49211
0.468                   1.002769        91.62161
0.472                   1.003395        90.73527
0.476                   1.003424        89.84615
0.48                     1.00285        88.96866
0.484                    1.00177        88.11628
0.488                   1.000368        87.29914
0.492                  0.9988894        86.52224
0.496                  0.9975924        85.78445
0.5                    0.9967069        85.07861
0.504                  0.9963913         84.3926
0.508                  0.9967044        83.71149
0.512                  0.9975931         83.0203
0.516                  0.9989024        82.30664
0.52                    1.000402         81.5629
0.524                   1.001829        80.78768
0.528                   1.002931        79.98576
0.532                   1.003514        79.16743
0.536                   1.003472        78.34654
0.54                    1.002809        77.53815
0.544                   1.001638        76.75604
0.548                   1.000162        76.01023
0.552                  0.9986371         75.3053
0.556                  0.9973341        74.63929
0.56                   0.9964849        74.00399
0.564                  0.9962434        73.38627
0.568                  0.9966555        72.77041
0.572                   0.997651        72.14099
0.576                  0.9990551        71.48556
0.58                     1.00062        70.79713
0.584                   1.002068        70.07513
0.588                   1.003144        69.32555
0.592                   1.003655        68.55978
0.596                   1.003508         67.7927
0.6                     1.002724        67.04001
0.604                   1.001438        66.31574
0.608                  0.9998722        65.62955
0.612                  0.9983031        64.98522
0.616                  0.9970095         64.3796
0.62                   0.9962239        63.80313
0.624                  0.9960903        63.24144
0.628                  0.9966366        62.67785
0.632                  0.9977684        62.09655
0.636                  0.9992863        61.48539
0.64                    1.000921        60.83811
0.644                   1.002382        60.15545
0.648                    1.00341        59.44481
0.652                   1.003819        58.71905
0.656                   1.003533        57.99413
0.66                    1.002598        57.28647
0.664                   1.001174        56.61008
0.668                    0.99951        55.97413
0.672                  0.9979005         55.3812
0.676                  0.9966337        54.82665
0.68                   0.9959394        54.29923
0.684                  0.9959465        53.78312
0.688                  0.9966582        53.26067
0.692                  0.9979509        52.71576
0.696                  0.9995956        52.13673
0.7                       1.0013        51.51847
0.704                    1.00276        50.86326
0.708                   1.003713        50.18031
0.712                   1.003988        49.48407
0.716                    1.00353        48.79174
0.72                    1.002413        48.12035
0.724                   1.000832        47.48383
0.728                  0.9990629        46.89047
0.732                  0.9974209        46.34137
0.736                  0.9962015        45.83001
0.74                   0.9956278        45.34324
0.744                   0.995808        44.86357
0.748                   0.996715        44.37239
0.752                  0.9981898        43.85343
0.756                  0.9999702        43.29577
0.76                    1.001738        42.69578
0.764                   1.003177        42.05766
0.768                   1.004028        41.39267
0.772                   1.004134        40.71705
0.776                   1.003469        40.04928
0.78                    1.002145        39.40695
0.784                   1.000391        38.80365
0.788                  0.9985157        38.24653
0.792                   0.996854        37.73487
0.796                  0.9957072         37.2599
0.8                     0.995287        36.80627
0.804                  0.9956752        36.35474
0.808                  0.9968076        35.88576
0.812                  0.9984845        35.38312
0.816                   1.000407        34.83694
0.82                     1.00223        34.24542
0.824                   1.003627        33.61501
0.828                   1.004344        32.95929
0.832                   1.004246        32.29645
0.836                   1.003342        31.64631
0.84                    1.001786        31.02686
0.844                  0.9998463        30.45115
0.848                  0.9978676        29.92484
0.852                  0.9962048        29.44496
0.856                  0.9951612        29.00021
0.86                   0.9949319        28.57275
0.864                  0.9955657        28.14149
0.868                  0.9969547        27.68604
0.872                  0.9988531        27.19046
0.876                   1.000922        26.64627
0.88                    1.002789        26.05387
0.884                   1.004119        25.42233
0.888                   1.004667        24.76779
0.892                   1.004328        24.11056
0.896                   1.003151        23.47176
0.9                     1.001338        22.86967
0.904                  0.9992036        22.31653
0.908                  0.9971279        21.81612
0.912                   0.995486        21.36287
0.916                  0.9945801        20.94249
0.92                   0.9945826        20.53444
0.924                  0.9955019        20.11573
0.928                  0.9971798        19.66518
0.932                  0.9993183        19.16746
0.936                   1.001535        18.61583
0.94                    1.003431         18.0133
0.944                   1.004663        17.37194
0.948                   1.005004        16.71069
0.952                   1.004382        16.05216
0.956                   1.002894        15.41878
0.96                    1.000797        14.82894
0.964                  0.9984557        14.29376
0.968                    0.99629        13.81474
0.972                   0.994693        13.38323
0.976                   0.993962        12.98159
0.98                   0.9942402         12.5863
0.984                  0.9954882        12.17235
0.988                  0.9974885        11.71796
0.992                  0.9998859        11.20865
0.996                    1.00225        10.63991
1                       1.004156        10.01776
1.004                   1.005256        9.357669
1.008                   1.005344        8.681729
1.012                   1.004388        8.014972
1.016                   1.002545        7.381148
1.02                     1.00013        6.798639
1.024                  0.9975677        6.277075
1.028                  0.9953172        5.815246
1.032                  0.9937909        5.400878
1.036                  0.9932763        5.012508
1.04                   0.9938802        4.623313
1.044                   0.995506        4.206161
1.048                  0.9978688        3.738783
1.052                   1.000548        3.207938
1.056                   1.003063        2.611727
1.06                    1.004958        1.959758
1.064                   1.005887        1.271324
1.068                   1.005667       0.5720585
1.072                    1.00432      -0.1103417
1.076                   1.002066       -0.750741
1.08                   0.9992925       -1.330934
1.084                  0.9964871       -1.843115
1.088                  0.9941555       -2.291765
1.092                  0.9927283       -2.693394
1.096                   0.992479       -3.073896
1.1                    0.9934698       -3.463844
1.104                  0.9955363       -3.892679
1.108                  0.9983151       -4.383005
1.112                   1.001311       -4.946496
1.116                   1.003985       -5.581948
1.12                    1.005852       -6.275513
1.124                   1.006565       -7.003502
1.128                   1.005976       -7.736243
1.132                   1.004165        -8.44298
1.136                    1.00143        -9.09704
1.14                   0.9982397       -9.680495
1.144                  0.9951583       -10.18775
1.148                  0.9927436       -10.62721
1.152                  0.9914468       -11.02043
1.156                  0.9915232       -11.39858
1.16                   0.9929805       -11.79661
1.164                  0.9955732       -12.24657
1.168                   0.998845       -12.77145
1.172                   1.002212       -13.38097
1.176                   1.005069       -14.07005
1.18                    1.006894       -14.82001
1.184                   1.007341       -15.60186
1.188                   1.006302       -16.38114
1.192                   1.003928       -17.12345
1.196                   1.000608       -17.80021
1.2                    0.9969131       -18.39376
1.204                  0.9934968       -18.90114
1.208                  0.9909828       -19.33551
1.212                  0.9898471       -19.72462
1.216                  0.9903241        -20.1061
1.22                   0.9923558       -20.52035
1.224                  0.9955971       -21.00268
1.228                  0.9994778       -21.57651
1.232                   1.003306       -22.24921
1.236                    1.00639       -23.01114
1.24                    1.008165       -23.83761
1.244                   1.008281       -24.69321
1.248                   1.006677       -25.53745
1.252                   1.003589       -26.33126
1.256                  0.9995213       -27.04338
1.26                   0.9951702        -27.6562
1.264                   0.991308       -28.16979
1.268                  0.9886449       -28.60324
1.272                   0.987695       -28.99222
1.276                  0.9886705       -29.38282
1.28                   0.9914325       -29.82265
1.284                  0.9955112       -30.35151
1.288                   1.000189       -30.99368
1.292                   1.004631       -31.75383
1.296                   1.008032       -32.61665
1.3                     1.009758       -33.54988
1.304                   1.009453       -34.50977
1.308                   1.007103        -35.4478
1.312                   1.003051       -36.31824
1.316                  0.9979502       -37.08563
1.32                   0.9926671       -37.73163
1.324                  0.9881395       -38.25973
1.328                  0.9852074       -38.69666
1.332                  0.9844505       -39.08888
1.336                  0.9860638       -39.49449
1.34                   0.9898084       -39.97174
1.344                   0.995047       -40.56738
1.348                   1.000858       -41.30778
1.352                   1.006201       -42.19458
1.356                   1.010101       -43.20524
1.36                    1.011811       -44.29742
1.364                    1.01094       -45.41569
1.368                   1.007527        -46.4998
1.372                   1.002048       -47.49351
1.376                  0.9953619       -48.35382
1.38                   0.9885877       -49.05948
1.384                  0.9829227       -49.61743
1.388                  0.9794263       -50.06475
1.392                  0.9788097       -50.46417
1.396                  0.9812752       -50.89298
1.4                    0.9864563       -51.42737
1.404                  0.9934723       -52.12688
1.408                   1.001087       -53.02306
1.412                    1.00793       -54.11486
1.416                   1.012728       -55.37025
1.42                    1.014519       -56.73233
1.424                   1.012809       -58.12795
1.428                   1.007665       -59.47753
1.432                  0.9997347       -60.70594
1.436                  0.9901851       -61.75422
1.44                   0.9805528       -62.59182
1.444                  0.9725083       -63.22693
1.448                  0.9675566       -63.71149
1.452                  0.9667259       -64.13666
1.456                  0.9703215       -64.61681
1.46                   0.9778212       -65.26577
1.464                  0.9879473        -66.1727
1.468                   0.998894       -67.38534
1.472                   1.008645       -68.90419
1.476                   1.015301       -70.68602
1.48                    1.017375       -72.65288
1.484                   1.014014       -74.70285
1.488                   1.005151       -76.72142
1.492                   0.991573       -78.59377
1.496                  0.9749026       -80.21995
1.5                    0.9574561       -81.53464
1.504                  0.9419582       -82.53014
1.508                  0.9310909       -83.27695
1.512                  0.9269286        -83.9298
1.516                  0.9303881       -84.70807
1.52                   0.9408892       -85.85148
1.524                  0.9563597       -87.56813
1.528                  0.9735702       -89.99854
1.532                  0.9886481       -93.20694
1.536                  0.9975944       -97.19467
1.54                   0.9966984       -101.9227
1.544                  0.9828213       -107.3339
1.548                  0.9535681       -113.3699
1.552                  0.9073804       -119.9845
1.556                  0.8435736       -127.1561
1.56                   0.7623425       -134.9048
1.564                  0.6647534       -143.3264
1.568                  0.5527585       -152.6748
1.572                  0.4293507       -163.6013
1.576                  0.2993696       -178.0272
1.58                   0.1744898        156.4773
1.584                  0.1119382        92.03779
1.588                  0.1937781        35.66551
1.592                  0.3208586        13.21458
1.596                  0.4497364      -0.3811983
1.6                    0.5708762       -10.98843
1.604                  0.6799348       -20.18373
1.608                  0.7741793       -28.52035
1.612                  0.8518724       -36.21632
1.616                  0.9121515       -43.35175
1.62                   0.9550165       -49.93905
1.624                  0.9813315       -55.95287
1.628                  0.9928098       -61.34601
1.632                  0.9919645       -66.06149
1.636                  0.9820036       -70.04608
1.64                    0.966643       -73.26791
1.644                  0.9498088       -75.73824
1.648                  0.9352189        -77.5325
1.652                  0.9258784       -78.80026
1.656                  0.9236048       -79.75253
1.66                   0.9287522       -80.62381
1.664                  0.9402586       -81.62178
1.668                  0.9560118       -82.88747
1.672                  0.9733842       -84.48011
1.676                  0.9897653       -86.38543
1.68                     1.00297       -88.53609
1.684                   1.011496       -90.83363
1.688                    1.01464       -93.16678
1.692                   1.012508       -95.42555
1.696                   1.005945       -97.51265
1.7                    0.9963895       -99.35388
1.704                  0.9856585       -100.9081
1.708                  0.9756797       -102.1754
1.712                  0.9681842       -103.2004
1.716                  0.9644144       -104.0668
1.72                   0.9649118       -104.8823
1.724                  0.9694429       -105.7566
1.728                  0.9770867       -106.7792
1.732                  0.9864526       -108.0038
1.736                  0.9959632       -109.4431
1.74                    1.004133        -111.073
1.744                   1.009791       -112.8411
1.748                    1.01223       -114.6785
1.752                   1.011274       -116.5099
1.756                   1.007273       -118.2642
1.76                    1.001033       -119.8833
1.764                  0.9936843       -121.3298
1.768                  0.9865056       -122.5939
1.772                   0.980716       -123.6954
1.776                  0.9772706        -124.682
1.78                   0.9766958       -125.6206
1.784                  0.9790072       -126.5847
1.788                  0.9837235       -127.6396
1.792                  0.9899785       -128.8312
1.796                  0.9966941       -130.1786
1.8                     1.002774       -131.6741
1.804                   1.007283        -133.287
1.808                   1.009581       -134.9704
1.812                     1.0094       -136.6696
1.816                   1.006874       -138.3296
1.82                    1.002498       -139.9027
1.824                  0.9970507       -141.3556
1.828                  0.9914661       -142.6743
1.832                   0.986685       -143.8671
1.836                  0.9834967       -144.9636
1.84                   0.9824048       -146.0101
1.844                  0.9835441       -147.0608
1.848                  0.9866656       -148.1676
1.852                  0.9911943       -149.3704
1.856                  0.9963426       -150.6909
1.86                    1.001254       -152.1303
1.864                   1.005147       -153.6703
1.868                   1.007434       -155.2779
1.872                   1.007802       -156.9112
1.876                   1.006255       -158.5258
1.88                    1.003097        -160.081
1.884                  0.9988853       -161.5461
1.888                  0.9943382       -162.9047
1.892                  0.9902179       -164.1578
1.896                  0.9872057       -165.3243
1.9                     0.985786       -166.4372
1.904                  0.9861661       -167.5386
1.908                  0.9882434       -168.6715
1.912                  0.9916319       -169.8716
1.916                   0.995739       -171.1619
1.92                   0.9998727        -172.549
1.924                   1.003361        -174.023
1.928                   1.005657       -175.5605
1.932                   1.006424       -177.1287
1.936                   1.005576       -178.6906
1.94                    1.003289        179.7892
1.944                  0.9999644        178.3396
1.948                  0.9961693        176.9784
1.952                   0.992539        175.7093
1.956                  0.9896751        174.5211
1.96                   0.9880444        173.3896
1.964                  0.9878992        172.2813
1.968                  0.9892364        171.1599
1.972                  0.9918034        169.9926
1.976                  0.9951476        168.7564
1.98                   0.9986997        167.4408
1.984                   1.001872        166.0498
1.988                   1.004157        164.5999
1.992                   1.005201         163.117
1.996                   1.004862        161.6323
2                        1.00322        160.1772
2.004                   1.000568        158.7787
2.008                  0.9973559        157.4553
2.012                  0.9941244        156.2142
2.016                  0.9914109        155.0493
2.02                   0.9896618        153.9428
2.024                  0.9891563        152.8676
2.028                  0.9899594        151.7924
2.032                  0.9919137        150.6875
2.036                  0.9946718        149.5297
2.04                   0.9977592        148.3063
2.044                   1.000659        147.0172
2.048                   1.002897        145.6736
2.052                   1.004118        144.2961
2.056                    1.00414        142.9113
2.06                    1.002979         141.547
2.064                   1.000844        140.2289
2.068                  0.9980981        138.9754
2.072                  0.9952057        137.7957
2.076                  0.9926506        136.6877
2.08                   0.9908563        135.6379
2.084                  0.9901147        134.6242
2.088                  0.9905357        133.6195
2.092                  0.9920312        132.5964
2.096                  0.9943316        131.5324
2.1                    0.9970381        130.4136
2.104                  0.9996918        129.2367
2.108                   1.001852        128.0091
2.112                    1.00317        126.7476
2.116                    1.00344        125.4747
2.12                    1.002631        124.2157
2.124                   1.000891        122.9941
2.128                  0.9985194        121.8286
2.132                  0.9959166        120.7294
2.136                  0.9935207        119.6968
2.14                   0.9917315        118.7209
2.144                  0.9908438        117.7833
2.148                   0.990996        116.8602
2.152                  0.9921478        115.9264
2.156                  0.9940894        114.9604
2.16                   0.9964812        113.9475
2.164                  0.9989134        112.8826
2.168                   1.000978        111.7704
2.172                   1.002334        110.6242
2.176                   1.002766        109.4637
2.18                    1.002211        108.3118
2.184                   1.000772        107.1903
2.188                  0.9986976        106.1175
2.192                  0.9963384        105.1042
2.196                  0.9940929        104.1525
2.2                    0.9923373        103.2551
2.204                  0.9913628        102.3963
2.208                  0.9913251         101.555
2.212                   0.992218        100.7082
2.216                  0.9938766        99.83527
2.22                   0.9960084        98.92146
2.224                  0.9982452        97.96026
2.228                   1.000208        96.95431
2.232                   1.001568        95.91458
2.236                   1.002104        94.85833
2.24                    1.001734        93.80621
2.244                   1.000525        92.77888
2.248                  0.9986868        91.79376
2.252                  0.9965298        90.86215
2.256                   0.994418        89.98736
2.26                   0.9927061        89.16392
2.264                   0.991679        88.37853
2.268                  0.9915023        87.61229
2.272                  0.9921954        86.84399
2.276                  0.9936282        86.05393
2.28                   0.9955462         85.2274
2.284                   0.997616        84.35704
2.288                  0.9994836        83.44394
2.292                   1.000834        82.49711
2.296                   1.001444        81.53184
2.3                     1.001214        80.56698
2.304                   1.000187        79.62201
2.308                  0.9985388        78.71373
2.312                  0.9965472        77.85367
2.316                  0.9945472        77.04607
2.32                   0.9928742        76.28705
2.324                  0.9918068        75.56518
2.328                  0.9915186        74.86342
2.332                   0.992049        74.16205
2.336                  0.9932966        73.44225
2.34                   0.9950389        72.68937
2.344                  0.9969716        71.89536
2.348                  0.9987626           71.06
2.352                   1.000107        70.19068