! TOUCHSTONE file generated by CST MICROWAVE STUDIO
! Date and time: Tue Jun  7 19:07:20 2022
! Project name: AppElm_antenne_patch_FR4.cst
! Parameters = {L=45; W=64.35; e=0.035; h=1.6; lambda=0.190476; ls=120; w0=1.6; w1=0.533333; ws=120; y0=20; y1=23.8095}
! Header version: 2018
! Port assignment regex: !\s*Touchstone port\s*([0-9]+)\s*=\s*(CST MWS port|CST DS port)\s*([0-9]+|Zmin|Zmax)\s*\(\"(.*)\"\)(\s*mode\s*([0-9]+))?.*
! Touchstone port assignment:
! Touchstone port 1 = CST MWS port 1 ("")
# GHz S MA R 50
0                      0.9825632              -0
0.004                  0.9835813       -10.75462
0.008                   0.986495       -21.39921
0.012                  0.9909038       -31.83045
0.016                  0.9962122         -41.957
0.02                     1.00172        -51.7027
0.024                   1.006723       -61.00733
0.028                   1.010609       -69.82578
0.032                   1.012934       -78.12639
0.036                   1.013473        -85.8892
0.04                    1.012241       -93.10483
0.044                   1.009485       -99.77422
0.048                   1.005645        -105.909
0.052                   1.001295       -111.5321
0.056                  0.9970577       -116.6785
0.06                   0.9935214       -121.3944
0.064                   0.991151       -125.7356
0.068                  0.9902227       -129.7634
0.072                  0.9907874       -133.5395
0.076                  0.9926705       -137.1207
0.08                   0.9955109        -140.554
0.084                  0.9988244       -143.8734
0.088                   1.002085       -147.0984
0.092                   1.004806       -150.2354
0.096                   1.006611       -153.2797
0.1                      1.00728       -156.2194
0.104                   1.006774       -159.0393
0.108                   1.005234       -161.7246
0.112                   1.002952       -164.2647
0.116                   1.000321        -166.656
0.12                   0.9977729       -168.9037
0.124                  0.9957102       -171.0219
0.128                  0.9944423       -173.0324
0.132                  0.9941392        -174.962
0.136                  0.9948074       -176.8387
0.14                   0.9962957       -178.6879
0.144                  0.9983267        179.4712
0.148                   1.000547        177.6276
0.152                   1.002588        175.7795
0.156                   1.004127        173.9332
0.16                    1.004935        172.1014
0.164                   1.004909        170.3004
0.168                   1.004083        168.5472
0.172                    1.00262        166.8564
0.176                   1.000781        165.2376
0.18                   0.9988822        163.6938
0.184                  0.9972381        162.2205
0.188                  0.9961151        160.8065
0.192                  0.9956843        159.4354
0.196                  0.9959963        158.0885
0.2                    0.9969756        156.7474
0.204                   0.998437        155.3977
0.208                    1.00012        154.0304
0.212                   1.001736        152.6437
0.216                   1.003016        151.2421
0.22                    1.003755        149.8359
0.224                   1.003842        148.4389
0.228                   1.003281        147.0658
0.232                   1.002179        145.7302
0.236                   1.000735        144.4417
0.24                   0.9991984        143.2047
0.244                  0.9978321        142.0176
0.248                  0.9968644        140.8726
0.252                  0.9964521        139.7576
0.256                  0.9966536        138.6575
0.26                   0.9974216        137.5577
0.264                   0.998613        136.4458
0.268                   1.000015        135.3142
0.272                   1.001384        134.1608
0.276                   1.002488        132.9893
0.28                    1.003143        131.8083
0.284                   1.003245        130.6297
0.288                   1.002788        129.4666
0.292                   1.001856        128.3313
0.296                   1.000617        127.2327
0.3                    0.9992865        126.1753
0.304                  0.9980947        125.1582
0.308                  0.9972443        124.1752
0.312                  0.9968777        123.2158
0.316                  0.9970517        122.2672
0.32                   0.9977284        121.3164
0.324                  0.9987837        120.3526
0.328                    1.00003        119.3688
0.332                   1.001249        118.3633
0.336                   1.002231        117.3392
0.34                     1.00281        116.3044
0.344                   1.002892        115.2698
0.348                   1.002467        114.2474
0.352                   1.001616        113.2483
0.356                   1.000488        112.2809
0.36                   0.9992823        111.3494
0.364                  0.9982092        110.4528
0.368                  0.9974546        109.5855
0.372                  0.9971475        108.7378
0.376                  0.9973383         107.898
0.38                   0.9979891        107.0542
0.384                  0.9989825        106.1965
0.388                   1.000142        105.3185
0.392                   1.001263         104.419
0.396                   1.002152        103.5012
0.4                     1.002656        102.5727
0.404                   1.002689        101.6439
0.408                   1.002249        100.7262
0.412                   1.001416        99.82997
0.416                   1.000335        98.96298
0.42                   0.9991985        98.12885
0.424                  0.9982041        97.32648
0.428                  0.9975263         96.5501
0.432                  0.9972832        95.79037
0.436                  0.9975154        95.03595
0.44                   0.9981799         94.2755
0.444                  0.9991574        93.49986
0.448                   1.000274        92.70346
0.452                   1.001334        91.88534
0.456                   1.002151        91.04923
0.46                    1.002583        90.20285
0.464                   1.002555        89.35644
0.468                   1.002074        88.52106
0.472                   1.001225        87.70673
0.476                   1.000157        86.92052
0.48                   0.9990598         86.1655
0.484                  0.9981258        85.43999
0.488                    0.99752         84.7379
0.492                  0.9973493        84.04975
0.496                  0.9976431        83.36427
0.5                    0.9983482        82.67057
0.504                  0.9993384        81.96001
0.508                   1.000438        81.22771
0.512                   1.001451        80.47343
0.516                   1.002198        79.70151
0.52                    1.002549        78.92006
0.524                    1.00244         78.1395
0.528                    1.00189        77.37081
0.532                   1.000996         76.6236
0.536                  0.9999145        75.90438
0.54                   0.9988368        75.21549
0.544                  0.9979539        74.55448
0.548                  0.9974231        73.91462
0.552                  0.9973394        73.28594
0.556                   0.997718        72.65713
0.56                   0.9984918        72.01743
0.564                   0.999523        71.35874
0.568                   1.000628        70.67697
0.572                    1.00161        69.97273
0.576                   1.002295        69.25118
0.58                    1.002561        68.52107
0.584                   1.002359        67.79323
0.588                   1.001724        67.07868
0.592                   1.000767         66.3867
0.596                  0.9996556        65.72321
0.6                    0.9985877        65.08965
0.604                  0.9977537        64.48265
0.608                  0.9973035         63.8946
0.612                  0.9973187        63.31488
0.616                  0.9977979        62.73191
0.62                   0.9986566        62.13509
0.624                  0.9997413         61.5169
0.628                   1.000859        60.87409
0.632                   1.001809        60.20834
0.636                   1.002423         59.5258
0.64                    1.002588        58.83611
0.644                   1.002274        58.15057
0.648                   1.001533        57.48037
0.652                   1.000496        56.83441
0.656                  0.9993445        56.21786
0.66                   0.9982852        55.63113
0.664                  0.9975081        55.06969
0.668                  0.9971544         54.5248
0.672                  0.9972904        53.98506
0.676                  0.9978939        53.43848
0.68                   0.9988587        52.87466
0.684                   1.000013         52.2867
0.688                   1.001151        51.67242
0.692                   1.002068        51.03473
0.696                   1.002598        50.38104
0.7                     1.002646        49.72201
0.704                   1.002197         49.0696
0.708                    1.00133         48.4351
0.712                   1.000195        47.82707
0.716                  0.9989925        47.24977
0.72                   0.9979382        46.70238
0.724                  0.9972227        46.17896
0.728                  0.9969768         45.6695
0.732                  0.9972481        45.16165
0.736                  0.9979903        44.64301
0.74                   0.9990724        44.10339
0.744                   1.000301        43.53667
0.748                   1.001455        42.94191
0.752                   1.002328        42.32348
0.756                   1.002759        41.69022
0.76                    1.002668        41.05393
0.764                   1.002066         40.4273
0.768                   1.001056        39.82169
0.772                  0.9998157        39.24514
0.776                  0.9985647        38.70083
0.78                   0.9975283        38.18645
0.784                  0.9968954        37.69441
0.788                   0.996784        37.21324
0.792                  0.9972182        36.72954
0.796                  0.9981236         36.2305
0.8                    0.9993394         35.7063
0.804                   1.000648        35.15182
0.808                   1.001813        34.56762
0.812                   1.002624        33.95977
0.816                   1.002931        33.33879
0.82                    1.002672        32.71778
0.824                   1.001888        32.11014
0.828                   1.000713         31.5273
0.832                  0.9993535        30.97658
0.836                   0.998051        30.45983
0.84                   0.9970414        29.97296
0.844                  0.9965099        29.50649
0.848                  0.9965578        29.04724
0.852                  0.9971815        28.58069
0.856                  0.9982727         28.0937
0.86                   0.9996376         27.5769
0.864                   1.001031        27.02644
0.868                   1.002202        26.44465
0.872                   1.002936        25.83959
0.876                   1.003097        25.22361
0.88                    1.002648        24.61122
0.884                   1.001662        24.01658
0.888                    1.00031        23.45101
0.892                  0.9988296        22.92091
0.896                  0.9974869        22.42651
0.9                    0.9965265         21.9616
0.904                   0.996127        21.51454
0.908                  0.9963676         21.0703
0.912                  0.9972108         20.6132
0.916                  0.9985095        20.12987
0.92                    1.000032         19.6117
0.924                   1.001504        19.05642
0.928                   1.002658        18.46848
0.932                   1.003282        17.85824
0.936                   1.003256        17.24013
0.94                    1.002574        16.63018
0.944                    1.00135        16.04325
0.948                  0.9997954         15.4904
0.952                  0.9981856         14.9768
0.956                   0.996811        14.50063
0.96                   0.9959245        14.05318
0.964                  0.9956938        13.62028
0.968                  0.9961696        13.18482
0.972                  0.9972738        12.72992
0.976                  0.9988131        12.24211
0.98                    1.000512        11.71383
0.984                   1.002065        11.14475
0.988                   1.003189        10.54187
0.992                   1.003674        9.918167
0.996                   1.003424        9.290439
1                       1.002471        8.676367
1.004                   1.000974        8.091482
1.008                  0.9991948        7.546379
1.012                  0.9974483        7.044665
1.016                  0.9960517        6.582064
1.02                   0.9952638        6.146923
1.024                  0.9952371        5.722174
1.028                  0.9959864        5.288434
1.032                  0.9973849        4.827633
1.036                  0.9991855        4.326413
1.04                    1.001065        3.778606
1.044                   1.002682        3.186319
1.048                    1.00374        2.559518
1.052                   1.004038        1.914268
1.056                   1.003507        1.269975
1.06                    1.002228       0.6460849
1.064                   1.000416      0.05870611
1.068                  0.9983876      -0.4823277
1.072                  0.9965051      -0.9754617
1.076                  0.9951132        -1.42804
1.08                   0.9944741       -1.855277
1.084                  0.9947168       -2.277642
1.088                  0.9958113       -2.717083
1.092                  0.9975697       -3.192879
1.096                  0.9996811       -3.718006
1.1                     1.001766       -4.296747
1.104                   1.003444       -4.923983
1.108                   1.004404       -5.586074
1.112                   1.004458       -6.263328
1.116                   1.003576       -6.933343
1.12                    1.001897       -7.574588
1.124                  0.9997025       -8.170426
1.128                  0.9973769        -8.71204
1.132                  0.9953371       -9.200507
1.136                  0.9939591       -9.646938
1.14                   0.9935062       -10.07088
1.144                  0.9940774       -10.49687
1.148                  0.9955853        -10.9498
1.152                  0.9977689       -11.45026
1.156                    1.00024       -12.01056
1.16                    1.002553       -12.63257
1.164                   1.004283       -13.30743
1.168                   1.005106       -14.01716
1.172                   1.004852       -14.73772
1.176                    1.00354       -15.44303
1.18                     1.00138       -16.10938
1.184                  0.9987364       -16.71957
1.188                  0.9960757       -17.26626
1.192                  0.9938792       -17.75388
1.196                  0.9925579       -18.19835
1.2                    0.9923725       -18.62464
1.204                  0.9933803       -19.06224
1.208                  0.9954197       -19.53961
1.212                   0.998136       -20.07864
1.216                   1.001044       -20.69059
1.22                    1.003618       -21.37408
1.224                   1.005379       -22.11543
1.228                   1.005988       -22.89109
1.232                   1.005301       -23.67155
1.236                   1.003402       -24.42618
1.24                    1.000592       -25.12835
1.244                  0.9973468        -25.7602
1.248                  0.9942363       -26.31634
1.252                  0.9918268        -26.8056
1.256                  0.9905755       -27.25028
1.26                   0.9907393       -27.68255
1.264                  0.9923213       -28.13849
1.268                  0.9950614       -28.65122
1.272                  0.9984818        -29.2444
1.276                   1.001971        -29.9279
1.28                    1.004893       -30.69611
1.284                   1.006701        -31.5291
1.288                   1.007033       -32.39606
1.292                   1.005777       -33.26023
1.296                   1.003099       -34.08489
1.3                    0.9994239       -34.83934
1.304                  0.9953706       -35.50463
1.308                  0.9916538       -36.07775
1.312                  0.9889562        -36.5735
1.316                     0.9878       -37.02288
1.32                   0.9884399       -37.46808
1.324                  0.9908033       -37.95444
1.328                  0.9944957       -38.52159
1.332                  0.9988667       -39.19571
1.336                   1.003126       -39.98473
1.34                    1.006486        -40.8772
1.344                   1.008295        -41.8445
1.348                   1.008156       -42.84554
1.352                   1.005999       -43.83318
1.356                   1.002105       -44.76148
1.36                   0.9970756       -45.59331
1.364                  0.9917469       -46.30738
1.368                  0.9870553       -46.90372
1.372                  0.9838717       -47.40586
1.376                   0.982831       -47.85841
1.38                   0.9841958       -48.31961
1.384                  0.9877876       -48.85009
1.388                  0.9930049       -49.50065
1.392                  0.9989263       -50.30235
1.396                   1.004473       -51.26104
1.4                     1.008598       -52.35695
1.404                   1.010464       -53.54841
1.408                   1.009588        -54.7784
1.412                   1.005935       -55.98275
1.416                  0.9999431       -57.09938
1.42                   0.9924888        -58.0783
1.424                  0.9847683       -58.89157
1.428                  0.9781135       -59.54161
1.432                  0.9737567       -60.06526
1.436                  0.9725802       -60.53087
1.44                   0.9749121       -61.02698
1.444                   0.980425       -61.64468
1.448                  0.9881676        -62.4587
1.452                  0.9967254       -63.51287
1.456                   1.004467       -64.81301
1.46                    1.009817       -66.32789
1.464                   1.011513       -67.99511
1.468                    1.00881       -69.73009
1.472                   1.001623        -71.4364
1.476                  0.9905939       -73.01746
1.48                   0.9770696        -74.3907
1.484                  0.9629731       -75.50453
1.488                  0.9505473       -76.35658
1.492                   0.941971       -77.00845
1.496                   0.938893       -77.58798
1.5                    0.9419918       -78.27245
1.504                  0.9507024         -79.254
1.508                  0.9632107       -80.69958
1.512                  0.9767051       -82.72171
1.516                   0.987785       -85.36839
1.52                   0.9928935       -88.62979
1.524                  0.9886852       -92.45248
1.528                  0.9722977       -96.75366
1.532                  0.9415313       -101.4302
1.536                  0.8949581       -106.3605
1.54                   0.8319832       -111.3978
1.544                  0.7528827       -116.3493
1.548                  0.6588469       -120.9289
1.552                  0.5521045       -124.6443
1.556                  0.4363388       -126.4978
1.56                   0.3182541       -124.0691
1.564                  0.2142445       -110.6509
1.568                  0.1718629       -76.22067
1.572                  0.2318465       -45.66121
1.576                  0.3408466       -35.30812
1.58                   0.4591226       -34.07443
1.584                  0.5733028       -36.45812
1.588                  0.6775333       -40.45279
1.592                  0.7684858       -45.20101
1.596                  0.8441604       -50.26539
1.6                    0.9035584       -55.38369
1.604                  0.9465851       -60.37425
1.608                  0.9740104       -65.09561
1.612                    0.98743       -69.42921
1.616                  0.9891972       -73.27446
1.62                   0.9823042       -76.55225
1.624                  0.9701855       -79.21561
1.628                  0.9564281        -81.2647
1.632                  0.9443819       -82.76092
1.636                  0.9367161       -83.83126
1.64                   0.9350238       -84.65417
1.644                  0.9396077        -85.4262
1.648                  0.9495416       -86.32066
1.652                  0.9629918       -87.45505
1.656                  0.9776808       -88.87798
1.66                   0.9913497       -90.57518
1.664                   1.002124       -92.48574
1.668                   1.008748       -94.52096
1.672                   1.010691       -96.58066
1.676                   1.008155       -98.56688
1.68                    1.001999       -100.3952
1.684                  0.9935857       -102.0049
1.688                  0.9845677        -103.368
1.692                  0.9766246       -104.4954
1.696                  0.9711826       -105.4366
1.7                    0.9691672       -106.2726
1.704                  0.9708472       -107.0996
1.708                  0.9758136       -108.0091
1.712                  0.9830964       -109.0701
1.716                  0.9913832       -110.3179
1.72                   0.9992776       -111.7519
1.724                    1.00554       -113.3404
1.728                   1.009274       -115.0297
1.732                   1.010039       -116.7539
1.736                    1.00789       -118.4454
1.74                    1.003346        -120.044
1.744                  0.9972962       -121.5055
1.748                  0.9908544       -122.8085
1.752                  0.9851707       -123.9586
1.756                  0.9812368       -124.9884
1.76                   0.9797097       -125.9517
1.764                  0.9807997        -126.914
1.768                  0.9842426       -127.9384
1.772                  0.9893698       -129.0742
1.776                  0.9952485        -130.348
1.78                    1.000862       -131.7615
1.784                   1.005286       -133.2927
1.788                   1.007838       -134.9024
1.792                   1.008171       -136.5408
1.796                   1.006317        -138.156
1.8                     1.002667       -139.7014
1.804                  0.9979059       -141.1427
1.808                  0.9928913       -142.4638
1.812                  0.9885138       -143.6694
1.816                  0.9855381       -144.7853
1.82                   0.9844686       -145.8535
1.824                    0.98546        -146.925
1.828                  0.9882947       -148.0488
1.832                  0.9924345       -149.2634
1.836                   0.997129       -150.5897
1.84                    1.001557       -152.0283
1.844                   1.004971       -153.5612
1.848                   1.006818       -155.1555
1.852                   1.006826         -156.77
1.856                   1.005036        -158.361
1.86                    1.001795       -159.8899
1.864                  0.9976886       -161.3286
1.868                  0.9934503       -162.6648
1.872                  0.9898299       -163.9041
1.876                  0.9874634       -165.0697
1.88                   0.9867577       -166.1985
1.884                  0.9878159       -167.3341
1.888                   0.990422        -168.518
1.892                  0.9940868       -169.7824
1.896                  0.9981429       -171.1436
1.9                     1.001869       -172.6007
1.904                   1.004619        -174.136
1.908                   1.005925       -175.7191
1.912                   1.005577       -177.3123
1.916                    1.00365       -178.8764
1.92                    1.000494        179.6226
1.924                  0.9966694        178.2084
1.928                   0.992858        176.8899
1.932                  0.9897414         175.659
1.936                  0.9878785        174.4916
1.94                   0.9876006        173.3518
1.944                   0.988949        172.1986
1.948                  0.9916662        170.9939
1.952                  0.9952465          169.71
1.956                  0.9990327        168.3344
1.96                    1.002336        166.8716
1.964                   1.004559        165.3415
1.968                   1.005298        163.7757
1.972                   1.004407        162.2123
1.976                   1.002029        160.6892
1.98                   0.9985687        159.2386
1.984                  0.9946314        157.8807
1.988                  0.9909188        156.6201
1.992                  0.9881043        155.4439
1.996                  0.9867078        154.3235
2                      0.9869928        153.2191
2.004                   0.988911        152.0879
2.008                  0.9921074        150.8923
2.012                   0.995986        149.6071
2.016                  0.9998203        148.2244
2.02                    1.002885        146.7542
2.024                   1.004587        145.2227
2.028                   1.004567        143.6671
2.032                   1.002765          142.13
2.036                  0.9994399        140.6524
2.04                    0.995133        139.2667
2.044                   0.990584        137.9905
2.048                   0.986607        136.8222
2.052                  0.9839408        135.7399
2.056                  0.9831042        134.7042
2.06                   0.9842836        133.6648
2.064                  0.9872846        132.5708
2.068                  0.9915576        131.3807
2.072                   0.996296        130.0709
2.076                   1.000583        128.6394
2.08                    1.003552        127.1061
2.084                   1.004548        125.5093
2.088                   1.003236        123.8992
2.092                  0.9996798        122.3305
2.096                  0.9943459        120.8537
2.1                    0.9880509        119.5058
2.104                  0.9818409         118.303
2.108                  0.9768149        117.2337
2.112                  0.9739171        116.2582
2.116                  0.9737354         115.313
2.12                   0.9763548        114.3227
2.124                  0.9813087        113.2147
2.128                   0.987643        111.9347
2.132                  0.9940795        110.4568
2.136                  0.9992377        108.7878
2.14                    1.001872        106.9649
2.144                   1.001083        105.0503
2.148                  0.9964858        103.1222
2.152                  0.9883042        101.2644
2.156                  0.9773971        99.55406
2.16                   0.9651845        98.04762
2.164                  0.9534695         96.7648
2.168                  0.9441438        95.67476
2.172                  0.9388076        94.68965
2.176                  0.9383695        93.67196
2.18                   0.9427384        92.45756
2.184                  0.9507086        90.88816
2.188                  0.9600753        88.84124
2.192                  0.9679302        86.24693
2.196                   0.971038        83.09012
2.2                    0.9662007        79.40216
2.204                  0.9505546        75.24957
2.208                   0.921787        70.72506
2.212                   0.878282        65.94469
2.216                  0.8192141        61.05335
2.22                    0.744611        56.24372
2.224                  0.6554214        51.80115
2.228                  0.5536526        48.20953
2.232                   0.442789        46.42441
2.236                  0.3292482        48.66632
2.24                    0.228114         60.7061
2.244                  0.1806222        91.36663
2.248                  0.2286939        121.9969
2.252                  0.3307061        134.0001
2.256                  0.4455045        136.2093
2.26                    0.557913        134.3878
2.264                  0.6613504        130.7541
2.268                  0.7521352        126.2641
2.272                  0.8280504        121.4038
2.276                  0.8879453        116.4618
2.28                   0.9316192        111.6363
2.284                  0.9597774        107.0798
2.288                  0.9739934        102.9187
2.292                  0.9766393        99.25917
2.296                  0.9707591        96.18303
2.3                    0.9598589        93.73642
2.304                  0.9475883        91.91381
2.308                  0.9373182        90.64391
2.312                  0.9316659        89.78749
2.316                  0.9320865        89.15544
2.32                   0.9386776         88.5465
2.324                   0.950286        87.79086
2.328                  0.9648808        86.78166
2.332                  0.9800566        85.48444
2.336                   0.993514         83.9282
2.34                    1.003428        82.18694
2.344                   1.008674        80.36003
2.348                   1.008923        78.55546
2.352                   1.004632        76.87576