! TOUCHSTONE file generated by CST MICROWAVE STUDIO
! Date and time: Tue Jun  7 19:07:14 2022
! Project name: AppElm_antenne_patch_FR4.cst
! Parameters = {L=45; W=43.875; e=0.035; h=1.6; lambda=0.190476; ls=120; w0=1.6; w1=0.533333; ws=120; y0=20; y1=23.8095}
! Header version: 2018
! Port assignment regex: !\s*Touchstone port\s*([0-9]+)\s*=\s*(CST MWS port|CST DS port)\s*([0-9]+|Zmin|Zmax)\s*\(\"(.*)\"\)(\s*mode\s*([0-9]+))?.*
! Touchstone port assignment:
! Touchstone port 1 = CST MWS port 1 ("")
# GHz S MA R 50
0                      0.9955918              -0
0.004                   0.995821       -7.679374
0.008                  0.9964839       -15.32145
0.012                   0.997508       -22.88981
0.016                   0.998782       -30.34978
0.02                    1.000166       -37.66904
0.024                   1.001509       -44.81827
0.028                   1.002664       -51.77146
0.032                   1.003502       -58.50621
0.036                    1.00393       -65.00393
0.04                      1.0039       -71.24997
0.044                   1.003418       -77.23385
0.048                   1.002539       -82.94942
0.052                   1.001367       -88.39506
0.056                   1.000044       -93.57378
0.06                   0.9987294        -98.4933
0.064                  0.9975867       -103.1658
0.068                  0.9967589       -107.6072
0.072                  0.9963511       -111.8366
0.076                   0.996415       -115.8747
0.08                   0.9969408       -119.7429
0.084                   0.997857        -123.461
0.088                  0.9990397       -127.0465
0.092                   1.000328       -130.5134
0.096                   1.001546       -133.8714
0.1                     1.002527       -137.1258
0.104                   1.003136       -140.2783
0.108                    1.00329       -143.3278
0.112                   1.002971       -146.2711
0.116                   1.002224       -149.1051
0.12                     1.00116       -151.8278
0.124                   0.999935       -154.4395
0.128                  0.9987294       -156.9438
0.132                  0.9977228        -159.348
0.136                  0.9970665       -161.6627
0.14                   0.9968594       -163.9012
0.144                  0.9971331       -166.0781
0.148                  0.9978452       -168.2075
0.152                  0.9988861       -170.3017
0.156                   1.000095       -172.3692
0.16                    1.001286       -174.4146
0.164                   1.002274       -176.4381
0.168                   1.002907       -178.4356
0.172                   1.003087        179.5998
0.176                   1.002786        177.6768
0.18                     1.00205        175.8039
0.184                   1.000996         173.988
0.188                  0.9997893        172.2329
0.192                  0.9986222        170.5384
0.196                  0.9976812        168.9001
0.2                    0.9971176        167.3096
0.204                   0.997023        165.7556
0.208                  0.9974127        164.2255
0.212                  0.9982234        162.7076
0.216                  0.9993232        161.1922
0.22                    1.000533        159.6739
0.224                   1.001655        158.1514
0.228                   1.002507        156.6281
0.232                    1.00295        155.1112
0.236                    1.00291        153.6103
0.24                    1.002394         152.136
0.244                   1.001484        150.6979
0.248                   1.000328        149.3029
0.252                  0.9991166        147.9541
0.256                  0.9980496          146.65
0.26                   0.9973047        145.3846
0.264                  0.9970066        144.1482
0.268                  0.9972059        142.9289
0.272                  0.9978701        141.7148
0.276                  0.9988884        140.4954
0.28                     1.00009         139.264
0.284                   1.001275        138.0181
0.288                   1.002244        136.7603
0.292                   1.002835        135.4972
0.296                   1.002948        134.2388
0.3                     1.002563        132.9962
0.304                   1.001743        131.7803
0.308                   1.000624        130.5996
0.312                  0.9993925        129.4589
0.316                  0.9982571        128.3583
0.32                   0.9974104        127.2929
0.324                  0.9969976        126.2538
0.328                  0.9970903        125.2295
0.332                  0.9976743        124.2075
0.336                  0.9986511        123.1769
0.34                   0.9998547          122.13
0.344                   1.001081        121.0635
0.348                    1.00212        119.9794
0.352                   1.002797         118.884
0.356                   1.002994        117.7873
0.36                    1.002676        116.7009
0.364                   1.001897        115.6366
0.368                   1.000786        114.6036
0.372                  0.9995318        113.6077
0.376                  0.9983495        112.6497
0.38                   0.9974425        111.7255
0.384                  0.9969684        110.8264
0.388                  0.9970111        109.9406
0.392                  0.9975653        109.0553
0.396                  0.9985369        108.1592
0.4                     0.999759        107.2439
0.404                   1.001022        106.3058
0.408                   1.002108        105.3464
0.412                    1.00283        104.3723
0.416                   1.003062        103.3934
0.42                    1.002763        102.4222
0.424                   1.001982        101.4706
0.428                   1.000851        100.5487
0.432                  0.9995634        99.66269
0.436                  0.9983417        98.81378
0.44                   0.9973986        97.99776
0.444                     0.9969        97.20581
0.448                  0.9969349        96.42589
0.452                  0.9974997        95.64476
0.456                  0.9984977        94.85051
0.46                   0.9997562        94.03452
0.464                   1.001057        93.19302
0.468                   1.002174        92.32772
0.472                   1.002912        91.44534
0.476                   1.003141        90.55657
0.48                    1.002821        89.67411
0.484                   1.002001        88.81064
0.488                   1.000824        87.97653
0.492                  0.9994903        87.17814
0.496                  0.9982328         86.4166
0.5                    0.9972721        85.68742
0.504                  0.9967782        84.98126
0.508                  0.9968406        84.28547
0.512                   0.997451        83.58631
0.516                  0.9985038        82.87149
0.52                   0.9998159        82.13228
0.524                   1.001158         81.3651
0.528                   1.002294        80.57206
0.532                   1.003025        79.76055
0.536                   1.003221        78.94194
0.54                    1.002844        78.12957
0.544                   1.001957         77.3366
0.548                    1.00071        76.57367
0.552                  0.9993212        75.84705
0.556                  0.9980322        75.15739
0.56                   0.9970709        74.49961
0.564                  0.9966094        73.86356
0.568                  0.9967323        73.23576
0.572                  0.9974206        72.60194
0.576                  0.9985551        71.94947
0.58                   0.9999371        71.26973
0.584                   1.001323         70.5596
0.588                    1.00247        69.82193
0.592                   1.003173        69.06502
0.596                   1.003307        68.30114
0.6                     1.002844        67.54441
0.604                   1.001862        66.80841
0.608                   1.000529         66.1039
0.612                  0.9990773        65.43679
0.616                  0.9977624        64.80706
0.62                   0.9968186         64.2086
0.624                  0.9964162        63.63021
0.628                  0.9966303        63.05752
0.632                  0.9974264        62.47553
0.636                   0.998666        61.87144
0.64                    1.000131        61.23696
0.644                   1.001563        60.56966
0.648                   1.002708        59.87347
0.652                   1.003362        59.15783
0.656                   1.003406        58.43613
0.66                    1.002829         57.7233
0.664                   1.001726         57.0334
0.668                   1.000289        56.37707
0.672                  0.9987689        55.75965
0.676                   0.997435        55.18014
0.68                   0.9965263        54.63115
0.684                  0.9962085        54.10016
0.688                  0.9965427        53.57167
0.692                  0.9974733        53.03006
0.696                  0.9988376        52.46247
0.7                     1.000395        51.86106
0.704                   1.001869        51.22448
0.708                   1.002997        50.55797
0.712                   1.003578        49.87238
0.716                   1.003503        49.18236
0.72                    1.002781        48.50376
0.724                   1.001534        47.85099
0.728                  0.9999773        47.23446
0.732                  0.9983848        46.65871
0.736                    0.99704         46.1214
0.74                   0.9961857         45.6136
0.744                  0.9959787        45.12122
0.748                  0.9964611        44.62756
0.752                  0.9975516        44.11634
0.756                  0.9990581        43.57475
0.76                    1.000714        42.99574
0.764                   1.002224        42.37923
0.768                   1.003319        41.73208
0.772                     1.0038        41.06685
0.776                   1.003576        40.39954
0.78                    1.002681        39.74698
0.784                   1.001265        39.12385
0.788                  0.9995756        38.54018
0.792                    0.99791        37.99938
0.796                  0.9965665         37.4975
0.8                    0.9957886        37.02374
0.804                  0.9957214        36.56225
0.808                  0.9963829        36.09499
0.812                  0.9976593        35.60509
0.816                  0.9993255        35.07996
0.82                    1.001085        34.51357
0.824                   1.002625        33.90744
0.828                   1.003666        33.27037
0.832                   1.004021        32.61677
0.836                   1.003617        31.96424
0.84                    1.002519        31.33055
0.844                   1.000914        30.73061
0.848                  0.9990806        30.17379
0.852                  0.9973446        29.66212
0.856                  0.9960179        29.18971
0.86                   0.9953433        28.74357
0.864                  0.9954489        28.30585
0.868                  0.9963226        27.85712
0.872                  0.9978132        27.37994
0.876                  0.9996571        26.86217
0.88                    1.001526        26.29906
0.884                   1.003085        25.69409
0.888                   1.004053        25.05826
0.892                   1.004251        24.40813
0.896                   1.003634        23.76301
0.9                     1.002303        23.14165
0.904                   1.000485        22.55904
0.908                  0.9984981        22.02369
0.912                  0.9966959        21.53594
0.916                  0.9954047        21.08755
0.92                   0.9948632        20.66302
0.924                  0.9951776        20.24229
0.928                  0.9962998        19.80441
0.932                  0.9980343        19.33151
0.936                   1.000075        18.81205
0.94                    1.002056        18.24294
0.944                   1.003623        17.62995
0.948                   1.004492        16.98665
0.952                   1.004498        16.33199
0.956                   1.003631        15.68713
0.96                    1.002031        15.07184
0.964                  0.9999733        14.50109
0.968                  0.9978194        13.98226
0.972                  0.9959546         13.5136
0.976                  0.9947184        13.08415
0.98                   0.9943426        12.67552
0.984                  0.9949056        12.26514
0.988                  0.9963159        11.83047
0.992                  0.9983274        11.35325
0.996                   1.000583        10.82286
1                       1.002681        10.23819
1.004                   1.004242        9.607709
1.008                    1.00498        8.947924
1.012                   1.004754        8.280512
1.016                   1.003589         7.62868
1.02                    1.001676        7.013265
1.024                  0.9993456        6.449082
1.028                  0.9970075        5.942115
1.032                  0.9950813        5.488085
1.036                  0.9939212        5.072824
1.04                   0.9937479        4.674582
1.044                  0.9946058        4.267959
1.048                  0.9963521         3.82868
1.052                  0.9986808         3.33818
1.056                   1.001178        2.787015
1.06                    1.003397        2.176474
1.064                   1.004936        1.518209
1.068                    1.00551       0.8321347
1.072                   1.005001       0.1430362
1.076                   1.003481      -0.5235455
1.08                    1.001202       -1.145613
1.084                  0.9985547       -1.708602
1.088                  0.9960072       -2.208259
1.092                  0.9940191       -2.651879
1.096                  0.9929589       -3.057465
1.1                    0.9930332       -3.450725
1.104                  0.9942451       -3.860359
1.108                  0.9963898       -4.312599
1.112                  0.9990907       -4.826229
1.116                   1.001868       -5.409282
1.12                    1.004222       -6.057521
1.124                   1.005726       -6.755594
1.128                   1.006095       -7.479491
1.132                   1.005244       -8.200817
1.136                   1.003297       -8.891276
1.14                    1.000578       -9.527498
1.144                  0.9975534       -10.09523
1.148                  0.9947595       -10.59232
1.152                  0.9927031        -11.0297
1.156                  0.9917703       -11.43004
1.16                     0.99215       -11.82383
1.164                  0.9937945       -12.24375
1.168                  0.9964242       -12.71838
1.172                  0.9995776       -13.26682
1.176                   1.002693        -13.8952
1.18                    1.005211       -14.59586
1.184                   1.006669       -15.34885
1.188                   1.006786       -16.12538
1.192                   1.005512       -16.89253
1.196                   1.003037       -17.61862
1.2                    0.9997722        -18.2785
1.204                   0.996278       -18.85818
1.208                  0.9931743       -19.35801
1.212                  0.9910292       -19.79343
1.216                  0.9902518        -20.1929
1.22                    0.991011       -20.59299
1.224                  0.9931973       -21.03142
1.228                   0.996438       -21.53981
1.232                   1.000164       -22.13767
1.236                   1.003713       -22.82898
1.24                    1.006443       -23.60179
1.244                    1.00785       -24.43052
1.248                    1.00765       -25.28027
1.252                   1.005835       -26.11241
1.256                   1.002679        -26.8907
1.26                   0.9986987       -27.58743
1.264                  0.9945776       -28.18864
1.268                  0.9910479       -28.69761
1.272                  0.9887616       -29.13545
1.276                  0.9881637       -29.53825
1.28                   0.9894023       -29.95066
1.284                  0.9922908        -30.4173
1.288                  0.9963369       -30.97411
1.292                    1.00083       -31.64147
1.296                   1.004971       -32.42083
1.3                     1.008006       -33.29486
1.304                   1.009365       -34.23072
1.308                   1.008754       -35.18542
1.312                   1.006213       -36.11246
1.316                   1.002116       -36.96907
1.32                    0.997127       -37.72336
1.324                  0.9920952       -38.36063
1.328                  0.9879154       -38.88753
1.332                  0.9853662       -39.33268
1.336                  0.9849575       -39.74272
1.34                   0.9868211       -40.17406
1.344                  0.9906726       -40.68171
1.348                  0.9958563       -41.30845
1.352                   1.001462       -42.07672
1.356                   1.006488       -42.98515
1.36                    1.010013       -44.00943
1.364                   1.011354        -45.1068
1.368                   1.010181       -46.22277
1.372                   1.006583       -47.29913
1.376                   1.001068       -48.28261
1.38                   0.9945041       -49.13372
1.384                  0.9879908       -49.83494
1.388                  0.9826817       -50.39637
1.392                  0.9795744       -50.85706
1.396                  0.9793089       -51.27992
1.4                    0.9820237       -51.74043
1.404                  0.9873075        -52.3114
1.408                  0.9942629       -53.04828
1.412                   1.001667        -53.9788
1.416                   1.008185       -55.09899
1.42                    1.012602       -56.37519
1.424                   1.014015       -57.75023
1.428                   1.011991       -59.15182
1.432                   1.006646       -60.50229
1.436                  0.9986606       -61.72928
1.44                   0.9892126       -62.77723
1.444                  0.9798244       -63.61934
1.448                  0.9721268       -64.26726
1.452                   0.967564       -64.77534
1.456                  0.9670939       -65.23532
1.46                   0.9709554       -65.76006
1.464                  0.9785785       -66.46014
1.468                  0.9886658       -67.42073
1.472                  0.9994214       -68.68587
1.476                   1.008862       -70.25337
1.48                     1.01514       -72.07869
1.484                   1.016823       -74.08371
1.488                   1.013112       -76.16738
1.492                   1.003987       -78.21681
1.496                  0.9902691       -80.11952
1.5                    0.9735983       -81.77866
1.504                  0.9562872       -83.13265
1.508                  0.9410326       -84.17788
1.512                  0.9304674        -84.9886
1.516                  0.9266009       -85.72189
1.52                   0.9302846       -86.59746
1.524                  0.9408895       -87.85344
1.528                  0.9563237       -89.69572
1.532                  0.9733692       -92.26352
1.536                  0.9881906       -95.62172
1.54                   0.9968424       -99.77472
1.544                  0.9956752       -104.6891
1.548                  0.9816157       -110.3159
1.552                   0.952338       -116.6088
1.556                  0.9063593        -123.539
1.56                    0.843087       -131.1111
1.564                  0.7628426       -139.3871
1.568                  0.6668944        -148.535
1.572                   0.557567       -158.9411
1.576                   0.438651        -171.517
1.58                   0.3169978        171.3297
1.584                  0.2096694        142.4734
1.588                  0.1683791        90.91051
1.592                  0.2348594        45.13763
1.596                  0.3488382        20.58511
1.6                    0.4705102        5.030738
1.604                   0.587036       -6.861475
1.608                  0.6927153       -16.92326
1.612                  0.7842468       -25.87393
1.616                  0.8596286        -34.0237
1.62                   0.9178686       -41.50512
1.624                  0.9589041       -48.36176
1.628                   0.983575       -54.58745
1.632                  0.9935958       -60.14701
1.636                  0.9914987       -64.99133
1.64                   0.9805245       -69.07262
1.644                  0.9644289       -72.36383
1.648                  0.9471763       -74.88164
1.652                  0.9325062       -76.70866
1.656                  0.9234134       -78.00337
1.66                   0.9216622       -78.98604
1.664                  0.9275135        -79.8983
1.668                  0.9397902       -80.95108
1.672                  0.9562668       -82.28449
1.676                  0.9742247       -83.95407
1.68                   0.9909933       -85.94078
1.684                   1.004359       -88.17267
1.688                   1.012818       -90.54727
1.692                    1.01569       -92.94998
1.696                   1.013124       -95.26808
1.7                     1.006024       -97.40209
1.704                  0.9959019       -99.27637
1.708                  0.9846545       -100.8496
1.712                  0.9742871       -102.1233
1.716                  0.9665929       -103.1455
1.72                   0.9628483       -104.0053
1.724                  0.9635906       -104.8162
1.728                  0.9685439       -105.6936
1.732                   0.976715       -106.7302
1.736                  0.9866268       -107.9807
1.74                   0.9966178       -109.4568
1.744                   1.005133       -111.1313
1.748                   1.010955       -112.9483
1.752                   1.013356       -114.8346
1.756                   1.012168       -116.7111
1.76                    1.007777        -118.503
1.764                   1.001047       -120.1492
1.768                  0.9931834       -121.6108
1.772                  0.9855465       -122.8777
1.776                  0.9794327       -123.9715
1.78                   0.9758534       -124.9438
1.784                  0.9753608       -125.8668
1.788                  0.9779563       -126.8194
1.792                    0.98311       -127.8717
1.796                  0.9898807        -129.072
1.8                    0.9971043         -130.44
1.804                   1.003604       -131.9663
1.808                   1.008379       -133.6172
1.812                   1.010748       -135.3419
1.816                   1.010437       -137.0813
1.82                    1.007595        -138.776
1.824                   1.002768        -140.375
1.828                  0.9968045       -141.8422
1.832                  0.9907228       -143.1628
1.836                  0.9855472       -144.3461
1.84                   0.9821363       -145.4249
1.844                  0.9810345       -146.4502
1.848                  0.9823801       -147.4817
1.852                  0.9858887       -148.5765
1.856                  0.9909187       -149.7781
1.86                   0.9965981       -151.1098
1.864                   1.001982       -152.5718
1.868                   1.006212       -154.1435
1.872                   1.008647       -155.7881
1.876                   1.008951        -157.459
1.88                    1.007137       -159.1072
1.884                    1.00355       -160.6879
1.888                  0.9988152       -162.1671
1.892                  0.9937364       -163.5271
1.896                  0.9891657       -164.7693
1.9                    0.9858627       -165.9151
1.904                  0.9843654       -167.0023
1.908                  0.9848962       -168.0784
1.912                  0.9873279        -169.192
1.916                  0.9912143       -170.3833
1.92                   0.9958774       -171.6775
1.924                   1.000531       -173.0811
1.928                   1.004418       -174.5822
1.932                   1.006925       -176.1535
1.936                   1.007681       -177.7577
1.94                    1.006601       -179.3526
1.944                   1.003896        179.1018
1.948                   1.000036        177.6381
1.952                  0.9956727        176.2761
1.956                  0.9915395        175.0195
1.96                   0.9883254        173.8549
1.964                  0.9865606        172.7535
1.968                  0.9865238         171.676
1.972                  0.9881956        170.5802
1.976                  0.9912661        169.4284
1.98                   0.9951966        168.1943
1.984                  0.9993177        166.8672
1.988                   1.002946        165.4526
1.992                   1.005498        163.9708
1.996                   1.006575        162.4527
2                       1.006027        160.9348
2.004                   1.003968        159.4539
2.008                   1.000757        158.0412
2.012                  0.9969362        156.7177
2.016                  0.9931491        155.4908
2.02                   0.9900305        154.3524
2.024                  0.9881006        153.2802
2.028                  0.9876735        152.2411
2.032                  0.9888041        151.1972
2.036                  0.9912796        150.1132
2.04                   0.9946628        148.9623
2.044                   0.998372        147.7309
2.048                   1.001784        146.4202
2.052                   1.004337        145.0452
2.056                   1.005624        143.6321
2.06                    1.005448        142.2131
2.064                   1.003857        140.8221
2.068                   1.001127        139.4892
2.072                  0.9977237        138.2362
2.076                  0.9942207        137.0726
2.08                   0.9912099        135.9941
2.084                  0.9891983        134.9828
2.088                  0.9885202          134.01
2.092                  0.9892785        133.0414
2.096                   0.991328        132.0436
2.1                    0.9943044        130.9898
2.104                   0.997691        129.8646
2.108                   1.000912        128.6663
2.112                   1.003429        127.4064
2.116                   1.004831        126.1072
2.12                    1.004895        124.7981
2.124                   1.003625        123.5106
2.128                    1.00124        122.2737
2.132                  0.9981499        121.1093
2.136                   0.994878        120.0283
2.14                    0.991981        119.0287
2.144                  0.9899508        118.0956
2.148                    0.98913        117.2035
2.152                  0.9896499        116.3207
2.156                  0.9914091        115.4154
2.16                   0.9940924        114.4611
2.164                  0.9972304        113.4417
2.168                   1.000283        112.3537
2.172                   1.002735        111.2061
2.176                   1.004176        110.0188
2.18                    1.004374         108.819
2.184                   1.003302        107.6365
2.188                   1.001149        106.4992
2.192                  0.9982821        105.4286
2.196                  0.9951919        104.4364
2.2                    0.9924063        103.5219
2.204                  0.9904023        102.6721
2.208                  0.9895212        101.8634
2.212                   0.989908        101.0662
2.216                  0.9914853        100.2499
2.22                   0.9939691        99.38861
2.224                  0.9969216        98.46611
2.228                  0.9998299         97.4779
2.232                   1.002196        96.43184
2.236                   1.003621        95.34627
2.24                    1.003867        94.24673
2.244                   1.002897        93.16181
2.248                   1.000881        92.11847
2.252                  0.9981644        91.13782
2.256                  0.9952117        90.23144
2.26                   0.9925307        89.39926
2.264                  0.9905835        88.62914
2.268                  0.9897042        87.89883
2.272                  0.9900393        87.17987
2.276                  0.9915215        86.44277
2.28                   0.9938824        85.66252
2.284                   0.996703        84.82306
2.288                  0.9994895        83.91977
2.292                    1.00176        82.95998
2.296                   1.003127        81.96126
2.3                     1.003358        80.94824
2.304                   1.002416         79.9486
2.308                   1.000464        78.98847
2.312                  0.9978358        78.08832
2.316                  0.9949836        77.25934
2.32                   0.9923993        76.50135
2.324                  0.9905301         75.8025
2.328                  0.9896988        75.14104
2.332                  0.9900447        74.48929
2.336                   0.991499        73.81862
2.34                   0.9937975        73.10484
2.344                  0.9965298        72.33253
2.348                  0.9992147        71.49747
2.352                   1.001384        70.60706