! TOUCHSTONE file generated by CST MICROWAVE STUDIO
! Date and time: Sat May 14 10:02:56 2022
! Project name: AppElm_antenne_dipole_Alumina.cst
! Parameters = {L=33; e=0.035; f=2.45e+09; h=1.6; i=0.72; l1=2; lambda=122.449; ls=30; wl=1.7; ws=80}
! Header version: 2018
! Port assignment regex: !\s*Touchstone port\s*([0-9]+)\s*=\s*(CST MWS port|CST DS port)\s*([0-9]+|Zmin|Zmax)\s*\(\"(.*)\"\)(\s*mode\s*([0-9]+))?.*
! Touchstone port assignment:
! Touchstone port 1 = CST MWS port 1 ("")
# GHz S MA R 50
0                              1              -0
0.004                  0.9999984     -0.06867407
0.008                  0.9999939        -0.13734
0.012                  0.9999862      -0.2059897
0.016                  0.9999758      -0.2746152
0.02                   0.9999623      -0.3432083
0.024                  0.9999457      -0.4117613
0.028                  0.9999263      -0.4802663
0.032                   0.999904      -0.5487158
0.036                   0.999879      -0.6171021
0.04                   0.9998511       -0.685418
0.044                  0.9998207      -0.7536563
0.048                  0.9997877      -0.8218102
0.052                  0.9997522      -0.8898729
0.056                  0.9997143       -0.957838
0.06                   0.9996741       -1.025699
0.064                  0.9996316       -1.093451
0.068                  0.9995872       -1.161088
0.072                  0.9995407       -1.228604
0.076                  0.9994924       -1.295996
0.08                   0.9994423       -1.363257
0.084                  0.9993908       -1.430385
0.088                  0.9993377       -1.497375
0.092                  0.9992833       -1.564224
0.096                  0.9992276       -1.630929
0.1                    0.9991709       -1.697487
0.104                  0.9991133       -1.763897
0.108                  0.9990551       -1.830156
0.112                  0.9989962       -1.896264
0.116                  0.9989369       -1.962219
0.12                   0.9988774       -2.028021
0.124                  0.9988175       -2.093671
0.128                  0.9987579       -2.159168
0.132                  0.9986983       -2.224515
0.136                  0.9986391       -2.289711
0.14                   0.9985804        -2.35476
0.144                  0.9985224       -2.419663
0.148                  0.9984651       -2.484424
0.152                  0.9984089       -2.549045
0.156                  0.9983537        -2.61353
0.16                   0.9982998       -2.677884
0.164                  0.9982472        -2.74211
0.168                  0.9981961       -2.806215
0.172                  0.9981467       -2.870203
0.176                  0.9980989        -2.93408
0.18                   0.9980533       -2.997852
0.184                  0.9980097       -3.061526
0.188                  0.9979681       -3.125109
0.192                  0.9979289       -3.188607
0.196                  0.9978919       -3.252029
0.2                    0.9978574       -3.315382
0.204                  0.9978255       -3.378675
0.208                  0.9977963       -3.441915
0.212                  0.9977697       -3.505111
0.216                  0.9977459       -3.568272
0.22                    0.997725       -3.631408
0.224                  0.9977069       -3.694527
0.228                  0.9976919       -3.757639
0.232                  0.9976799       -3.820753
0.236                  0.9976708        -3.88388
0.24                   0.9976649       -3.947029
0.244                  0.9976619       -4.010209
0.248                  0.9976621       -4.073431
0.252                  0.9976654       -4.136705
0.256                  0.9976717       -4.200041
0.26                    0.997681       -4.263448
0.264                  0.9976935       -4.326936
0.268                   0.997709       -4.390515
0.272                  0.9977274       -4.454195
0.276                  0.9977487       -4.517986
0.28                    0.997773       -4.581896
0.284                     0.9978       -4.645936
0.288                  0.9978298       -4.710114
0.292                  0.9978622       -4.774439
0.296                  0.9978973        -4.83892
0.3                    0.9979348       -4.903566
0.304                  0.9979747       -4.968383
0.308                  0.9980168       -5.033382
0.312                  0.9980612       -5.098567
0.316                  0.9981076       -5.163948
0.32                    0.998156       -5.229531
0.324                  0.9982061       -5.295323
0.328                   0.998258       -5.361329
0.332                  0.9983113       -5.427556
0.336                  0.9983662        -5.49401
0.34                   0.9984223       -5.560693
0.344                  0.9984795       -5.627612
0.348                  0.9985376       -5.694771
0.352                  0.9985966       -5.762174
0.356                  0.9986562       -5.829822
0.36                   0.9987163       -5.897721
0.364                  0.9987766       -5.965872
0.368                  0.9988373       -6.034275
0.372                  0.9988978       -6.102934
0.376                  0.9989583       -6.171848
0.38                   0.9990185        -6.24102
0.384                   0.999078       -6.310447
0.388                  0.9991371        -6.38013
0.392                  0.9991951       -6.450069
0.396                  0.9992524       -6.520261
0.4                    0.9993085       -6.590704
0.404                  0.9993634       -6.661398
0.408                  0.9994167       -6.732338
0.412                  0.9994685       -6.803522
0.416                  0.9995187       -6.874946
0.42                    0.999567       -6.946606
0.424                  0.9996132       -7.018497
0.428                  0.9996574       -7.090616
0.432                  0.9996993       -7.162956
0.436                  0.9997388       -7.235513
0.44                   0.9997757        -7.30828
0.444                  0.9998102       -7.381252
0.448                  0.9998419       -7.454421
0.452                  0.9998709       -7.527781
0.456                  0.9998969       -7.601327
0.46                   0.9999202       -7.675048
0.464                  0.9999401        -7.74894
0.468                  0.9999572       -7.822993
0.472                  0.9999711       -7.897198
0.476                  0.9999816       -7.971552
0.48                   0.9999889       -8.046041
0.484                  0.9999929       -8.120662
0.488                  0.9999937       -8.195403
0.492                   0.999991       -8.270257
0.496                  0.9999851       -8.345213
0.5                    0.9999757       -8.420267
0.504                   0.999963       -8.495407
0.508                  0.9999471       -8.570626
0.512                  0.9999279       -8.645915
0.516                  0.9999053       -8.721266
0.52                   0.9998795       -8.796671
0.524                  0.9998504       -8.872122
0.528                  0.9998183        -8.94761
0.532                  0.9997832       -9.023126
0.536                  0.9997451       -9.098668
0.54                   0.9997039       -9.174222
0.544                    0.99966       -9.249785
0.548                  0.9996135       -9.325348
0.552                  0.9995642       -9.400908
0.556                  0.9995124       -9.476453
0.56                   0.9994582       -9.551981
0.564                  0.9994017       -9.627486
0.568                  0.9993432        -9.70296
0.572                  0.9992826       -9.778403
0.576                  0.9992201       -9.853808
0.58                   0.9991558       -9.929171
0.584                  0.9990901       -10.00449
0.588                  0.9990228       -10.07976
0.592                  0.9989544       -10.15497
0.596                  0.9988846       -10.23013
0.6                    0.9988142       -10.30524
0.604                  0.9987429       -10.38029
0.608                  0.9986708       -10.45528
0.612                  0.9985984       -10.53022
0.616                  0.9985258       -10.60509
0.62                    0.998453       -10.67991
0.624                  0.9983802       -10.75468
0.628                  0.9983078       -10.82939
0.632                  0.9982358       -10.90405
0.636                  0.9981643       -10.97866
0.64                   0.9980936       -11.05322
0.644                  0.9980239       -11.12775
0.648                  0.9979552       -11.20223
0.652                  0.9978878       -11.27669
0.656                  0.9978218       -11.35111
0.66                   0.9977574       -11.42552
0.664                  0.9976947       -11.49991
0.668                  0.9976338        -11.5743
0.672                  0.9975751       -11.64868
0.676                  0.9975185       -11.72307
0.68                   0.9974643       -11.79748
0.684                  0.9974124       -11.87191
0.688                   0.997363       -11.94637
0.692                  0.9973163       -12.02088
0.696                  0.9972725       -12.09544
0.7                    0.9972315       -12.17006
0.704                  0.9971933       -12.24475
0.708                  0.9971583       -12.31953
0.712                  0.9971265        -12.3944
0.716                  0.9970977       -12.46938
0.72                   0.9970723       -12.54447
0.724                  0.9970502       -12.61969
0.728                  0.9970314       -12.69506
0.732                  0.9970159       -12.77057
0.736                  0.9970038       -12.84625
0.74                   0.9969953       -12.92211
0.744                  0.9969901       -12.99816
0.748                  0.9969883        -13.0744
0.752                  0.9969899       -13.15087
0.756                   0.996995       -13.22755
0.76                   0.9970032       -13.30448
0.764                  0.9970149       -13.38166
0.768                  0.9970299        -13.4591
0.772                  0.9970479       -13.53681
0.776                  0.9970691       -13.61481
0.78                   0.9970934       -13.69311
0.784                  0.9971205       -13.77172
0.788                  0.9971506       -13.85066
0.792                  0.9971834       -13.92992
0.796                  0.9972189       -14.00952
0.8                    0.9972568       -14.08948
0.804                  0.9972971       -14.16981
0.808                  0.9973395       -14.25051
0.812                  0.9973842       -14.33159
0.816                  0.9974308       -14.41306
0.82                   0.9974792       -14.49493
0.824                  0.9975292       -14.57721
0.828                  0.9975806       -14.65991
0.832                  0.9976333       -14.74302
0.836                  0.9976871       -14.82657
0.84                   0.9977419       -14.91056
0.844                  0.9977974       -14.99499
0.848                  0.9978533       -15.07987
0.852                  0.9979096       -15.16519
0.856                  0.9979661       -15.25098
0.86                   0.9980226       -15.33723
0.864                  0.9980786       -15.42393
0.868                  0.9981343       -15.51111
0.872                  0.9981893       -15.59875
0.876                  0.9982435       -15.68686
0.88                   0.9982964       -15.77544
0.884                  0.9983482       -15.86449
0.888                  0.9983984       -15.95402
0.892                   0.998447       -16.04401
0.896                  0.9984937       -16.13447
0.9                    0.9985383       -16.22539
0.904                  0.9985806       -16.31678
0.908                  0.9986205       -16.40863
0.912                  0.9986578       -16.50094
0.916                  0.9986922       -16.59371
0.92                   0.9987237       -16.68692
0.924                   0.998752       -16.78057
0.928                  0.9987769       -16.87467
0.932                  0.9987985        -16.9692
0.936                  0.9988162       -17.06416
0.94                   0.9988303       -17.15954
0.944                  0.9988406       -17.25533
0.948                  0.9988468       -17.35153
0.952                  0.9988489       -17.44812
0.956                  0.9988467       -17.54511
0.96                   0.9988402       -17.64249
0.964                  0.9988292       -17.74024
0.968                  0.9988138       -17.83835
0.972                  0.9987938       -17.93682
0.976                  0.9987691       -18.03564
0.98                   0.9987397        -18.1348
0.984                  0.9987055       -18.23429
0.988                  0.9986667        -18.3341
0.992                  0.9986231       -18.43422
0.996                  0.9985746       -18.53465
1                      0.9985214       -18.63537
1.004                  0.9984634       -18.73637
1.008                  0.9984007       -18.83765
1.012                  0.9983332       -18.93918
1.016                  0.9982611         -19.041
1.02                   0.9981843       -19.14304
1.024                   0.998103        -19.2453
1.028                  0.9980173       -19.34781
1.032                  0.9979271       -19.45056
1.036                  0.9978327       -19.55351
1.04                   0.9977339       -19.65667
1.044                  0.9976313          -19.76
1.048                  0.9975246       -19.86354
1.052                  0.9974142       -19.96731
1.056                     0.9973       -20.07124
1.06                   0.9971824       -20.17533
1.064                  0.9970612       -20.27959
1.068                  0.9969371       -20.38401
1.072                  0.9968098       -20.48859
1.076                  0.9966797       -20.59334
1.08                   0.9965469       -20.69825
1.084                  0.9964117        -20.8033
1.088                   0.996274       -20.90848
1.092                  0.9961345       -21.01386
1.096                   0.995993       -21.11934
1.1                    0.9958499       -21.22502
1.104                  0.9957053       -21.33081
1.108                  0.9955595       -21.43676
1.112                  0.9954127       -21.54287
1.116                  0.9952651       -21.64918
1.12                   0.9951169       -21.75562
1.124                  0.9949682       -21.86222
1.128                  0.9948195       -21.96898
1.132                  0.9946709       -22.07594
1.136                  0.9945225       -22.18308
1.14                   0.9943747       -22.29041
1.144                  0.9942275       -22.39794
1.148                  0.9940813       -22.50568
1.152                  0.9939363       -22.61365
1.156                  0.9937925       -22.72184
1.16                   0.9936502       -22.83028
1.164                  0.9935098       -22.93896
1.168                  0.9933711       -23.04792
1.172                  0.9932345       -23.15715
1.176                  0.9931001       -23.26667
1.18                   0.9929682        -23.3765
1.184                  0.9928387       -23.48665
1.188                   0.992712       -23.59714
1.192                  0.9925881       -23.70798
1.196                   0.992467        -23.8192
1.2                    0.9923491        -23.9308
1.204                  0.9922343       -24.04281
1.208                  0.9921227       -24.15523
1.212                  0.9920143       -24.26811
1.216                  0.9919094       -24.38144
1.22                   0.9918079       -24.49525
1.224                  0.9917099       -24.60957
1.228                  0.9916153        -24.7244
1.232                  0.9915243       -24.83977
1.236                  0.9914367       -24.95571
1.24                   0.9913528       -25.07223
1.244                  0.9912721       -25.18934
1.248                  0.9911949       -25.30709
1.252                  0.9911212       -25.42547
1.256                  0.9910507       -25.54452
1.26                   0.9909835       -25.66426
1.264                  0.9909194        -25.7847
1.268                  0.9908582       -25.90587
1.272                     0.9908       -26.02779
1.276                  0.9907444       -26.15048
1.28                   0.9906915       -26.27396
1.284                  0.9906411       -26.39825
1.288                  0.9905928       -26.52336
1.292                  0.9905468       -26.64933
1.296                  0.9905025       -26.77617
1.3                    0.9904599       -26.90389
1.304                  0.9904188       -27.03252
1.308                  0.9903787       -27.16207
1.312                  0.9903397       -27.29257
1.316                  0.9903014       -27.42402
1.32                   0.9902634       -27.55645
1.324                  0.9902255       -27.68987
1.328                  0.9901876        -27.8243
1.332                  0.9901492       -27.95975
1.336                    0.99011       -28.09624
1.34                   0.9900697       -28.23377
1.344                  0.9900281       -28.37237
1.348                  0.9899849       -28.51204
1.352                  0.9899395       -28.65279
1.356                  0.9898918       -28.79465
1.36                   0.9898414       -28.93761
1.364                   0.989788       -29.08169
1.368                  0.9897312       -29.22688
1.372                  0.9896706       -29.37322
1.376                  0.9896059        -29.5207
1.38                   0.9895369       -29.66932
1.384                  0.9894631        -29.8191
1.388                   0.989384       -29.97003
1.392                  0.9892996       -30.12212
1.396                  0.9892095       -30.27538
1.4                     0.989113       -30.42981
1.404                  0.9890101       -30.58541
1.408                  0.9889005       -30.74218
1.412                  0.9887837       -30.90012
1.416                  0.9886594       -31.05923
1.42                   0.9885273       -31.21952
1.424                  0.9883873       -31.38097
1.428                  0.9882388       -31.54359
1.432                  0.9880816       -31.70738
1.436                  0.9879156       -31.87234
1.44                   0.9877401       -32.03846
1.444                  0.9875555       -32.20573
1.448                  0.9873609       -32.37415
1.452                  0.9871564       -32.54372
1.456                  0.9869418       -32.71443
1.46                   0.9867167       -32.88629
1.464                   0.986481       -33.05927
1.468                  0.9862344       -33.23338
1.472                  0.9859769       -33.40861
1.476                  0.9857083       -33.58495
1.48                   0.9854284        -33.7624
1.484                   0.985137       -33.94095
1.488                   0.984834        -34.1206
1.492                  0.9845194       -34.30133
1.496                  0.9841932       -34.48313
1.5                    0.9838549       -34.66603
1.504                  0.9835048       -34.84998
1.508                  0.9831429       -35.03499
1.512                  0.9827689       -35.22106
1.516                   0.982383       -35.40818
1.52                   0.9819851       -35.59636
1.524                  0.9815751       -35.78556
1.528                  0.9811532       -35.97581
1.532                  0.9807194       -36.16709
1.536                  0.9802738        -36.3594
1.54                   0.9798164       -36.55273
1.544                  0.9793472       -36.74709
1.548                  0.9788663       -36.94247
1.552                  0.9783742       -37.13888
1.556                  0.9778703       -37.33631
1.56                   0.9773553       -37.53476
1.564                  0.9768292       -37.73424
1.568                  0.9762921       -37.93475
1.572                  0.9757441       -38.13629
1.576                  0.9751854       -38.33887
1.58                   0.9746164        -38.5425
1.584                  0.9740367       -38.74717
1.588                  0.9734473       -38.95291
1.592                  0.9728477       -39.15972
1.596                  0.9722384       -39.36761
1.6                    0.9716196       -39.57658
1.604                  0.9709916       -39.78666
1.608                  0.9703543       -39.99787
1.612                  0.9697082        -40.2102
1.616                  0.9690533       -40.42369
1.62                   0.9683901       -40.63835
1.624                  0.9677184       -40.85421
1.628                  0.9670387       -41.07127
1.632                  0.9663511       -41.28958
1.636                  0.9656558       -41.50914
1.64                   0.9649529          -41.73
1.644                  0.9642429       -41.95216
1.648                  0.9635256       -42.17567
1.652                  0.9628012       -42.40055
1.656                  0.9620702       -42.62683
1.66                   0.9613322       -42.85457
1.664                  0.9605879       -43.08376
1.668                   0.959837       -43.31447
1.672                  0.9590797       -43.54674
1.676                  0.9583162       -43.78058
1.68                   0.9575464       -44.01605
1.684                  0.9567705        -44.2532
1.688                  0.9559884       -44.49205
1.692                  0.9552003       -44.73267
1.696                  0.9544059       -44.97509
1.7                    0.9536054       -45.21936
1.704                  0.9527985       -45.46554
1.708                  0.9519855       -45.71367
1.712                  0.9511659       -45.96379
1.716                  0.9503398       -46.21598
1.72                    0.949507       -46.47027
1.724                  0.9486672       -46.72672
1.728                  0.9478204        -46.9854
1.732                  0.9469662       -47.24634
1.736                  0.9461043       -47.50961
1.74                   0.9452345       -47.77529
1.744                  0.9443566       -48.04341
1.748                  0.9434699       -48.31403
1.752                  0.9425743       -48.58723
1.756                  0.9416692       -48.86305
1.76                   0.9407543       -49.14157
1.764                  0.9398289       -49.42284
1.768                  0.9388928       -49.70693
1.772                  0.9379453       -49.99389
1.776                  0.9369856        -50.2838
1.78                   0.9360135       -50.57671
1.784                   0.935028        -50.8727
1.788                  0.9340288       -51.17181
1.792                  0.9330148       -51.47412
1.796                  0.9319855        -51.7797
1.8                    0.9309402       -52.08859
1.804                  0.9298781       -52.40086
1.808                  0.9287981       -52.71661
1.812                  0.9276995       -53.03585
1.816                  0.9265817       -53.35867
1.82                   0.9254434       -53.68513
1.824                  0.9242839        -54.0153
1.828                  0.9231023       -54.34922
1.832                  0.9218973       -54.68697
1.836                  0.9206683        -55.0286
1.84                    0.919414       -55.37418
1.844                  0.9181335       -55.72377
1.848                  0.9168256       -56.07742
1.852                  0.9154893       -56.43518
1.856                  0.9141234       -56.79712
1.86                   0.9127269        -57.1633
1.864                  0.9112987       -57.53378
1.868                  0.9098374       -57.90859
1.872                  0.9083422        -58.2878
1.876                  0.9068114       -58.67148
1.88                   0.9052443       -59.05967
1.884                  0.9036394        -59.4524
1.888                  0.9019956       -59.84976
1.892                  0.9003119       -60.25176
1.896                  0.8985867       -60.65848
1.9                    0.8968188       -61.06997
1.904                  0.8950073       -61.48626
1.908                  0.8931507        -61.9074
1.912                  0.8912477       -62.33345
1.916                  0.8892972       -62.76445
1.92                   0.8872983       -63.20043
1.924                  0.8852492       -63.64144
1.928                   0.883149       -64.08755
1.932                  0.8809966       -64.53877
1.936                  0.8787905       -64.99516
1.94                   0.8765297       -65.45675
1.944                  0.8742131        -65.9236
1.948                  0.8718394       -66.39573
1.952                  0.8694075       -66.87319
1.956                  0.8669162       -67.35603
1.96                   0.8643647       -67.84428
1.964                  0.8617517       -68.33796
1.968                  0.8590761       -68.83714
1.972                  0.8563369       -69.34185
1.976                  0.8535331       -69.85213
1.98                   0.8506638       -70.36802
1.984                   0.847728       -70.88956
1.988                  0.8447248       -71.41678
1.992                  0.8416531       -71.94973
1.996                  0.8385122       -72.48845
2                      0.8353014       -73.03297
2.004                  0.8320197       -73.58335
2.008                  0.8286664       -74.13961
2.012                  0.8252407       -74.70181
2.016                  0.8217421          -75.27
2.02                   0.8181699       -75.84421
2.024                  0.8145234        -76.4245
2.028                  0.8108021       -77.01088
2.032                  0.8070055       -77.60346
2.036                   0.803133       -78.20223
2.04                   0.7991845       -78.80729
2.044                  0.7951593       -79.41868
2.048                  0.7910571       -80.03643
2.052                  0.7868778       -80.66062
2.056                   0.782621       -81.29131
2.06                   0.7782865       -81.92857
2.064                  0.7738743       -82.57243
2.068                  0.7693843         -83.223
2.072                  0.7648164       -83.88032
2.076                  0.7601707       -84.54449
2.08                   0.7554473       -85.21555
2.084                  0.7506462       -85.89363
2.088                  0.7457677       -86.57878
2.092                   0.740812       -87.27111
2.096                  0.7357796       -87.97069
2.1                    0.7306707       -88.67761
2.104                  0.7254858       -89.39201
2.108                  0.7202254       -90.11397
2.112                  0.7148901        -90.8436
2.116                  0.7094804       -91.58104
2.12                   0.7039971       -92.32639
2.124                  0.6984409       -93.07981
2.128                  0.6928127       -93.84139
2.132                  0.6871134        -94.6113
2.136                  0.6813439       -95.38969
2.14                   0.6755053       -96.17675
2.144                  0.6695985       -96.97259
2.148                  0.6636249       -97.77742
2.152                  0.6575857       -98.59141
2.156                  0.6514822       -99.41475
2.16                   0.6453156       -100.2477
2.164                  0.6390877       -101.0904
2.168                  0.6327999       -101.9431
2.172                  0.6264538        -102.806
2.176                  0.6200511       -103.6794
2.18                   0.6135937       -104.5636
2.184                  0.6070833       -105.4588
2.188                  0.6005221       -106.3653
2.192                  0.5939119       -107.2834
2.196                  0.5872549       -108.2134
2.2                    0.5805535       -109.1558
2.204                  0.5738098       -110.1107
2.208                  0.5670264       -111.0787
2.212                  0.5602056         -112.06
2.216                  0.5533504       -113.0552
2.22                   0.5464631       -114.0645
2.224                  0.5395468       -115.0886
2.228                  0.5326044       -116.1278
2.232                  0.5256388       -117.1826
2.236                  0.5186535       -118.2537
2.24                   0.5116516       -119.3414
2.244                  0.5046365       -120.4465
2.248                  0.4976119       -121.5694
2.252                  0.4905815       -122.7109
2.256                   0.483549       -123.8715
2.26                   0.4765186       -125.0521
2.264                  0.4694944       -126.2532
2.268                  0.4624805       -127.4756
2.272                  0.4554817       -128.7202
2.276                  0.4485024       -129.9877
2.28                   0.4415477       -131.2789
2.284                  0.4346224       -132.5948
2.288                  0.4277319       -133.9363
2.292                  0.4208816       -135.3042
2.296                   0.414077       -136.6996
2.3                     0.407324       -138.1234
2.304                  0.4006288       -139.5766
2.308                  0.3939976       -141.0603
2.312                   0.387437       -142.5755
2.316                  0.3809537       -144.1232
2.32                   0.3745548       -145.7046
2.324                  0.3682477       -147.3206
2.328                  0.3620397       -148.9723
2.332                  0.3559388       -150.6607
2.336                  0.3499529       -152.3868
2.34                   0.3440903       -154.1516
2.344                  0.3383594       -155.9557
2.348                  0.3327691       -157.8001
2.352                  0.3273281       -159.6854