! TOUCHSTONE file generated by CST MICROWAVE STUDIO
! Date and time: Sat May 14 10:02:57 2022
! Project name: AppElm_antenne_dipole_Alumina.cst
! Parameters = {L=33; e=0.035; f=2.45e+09; h=1.6; i=0.76; l1=2; lambda=122.449; ls=30; wl=1.7; ws=80}
! Header version: 2018
! Port assignment regex: !\s*Touchstone port\s*([0-9]+)\s*=\s*(CST MWS port|CST DS port)\s*([0-9]+|Zmin|Zmax)\s*\(\"(.*)\"\)(\s*mode\s*([0-9]+))?.*
! Touchstone port assignment:
! Touchstone port 1 = CST MWS port 1 ("")
# GHz S MA R 50
0                              1              -0
0.004                  0.9999984     -0.06921786
0.008                   0.999994      -0.1384279
0.012                  0.9999867      -0.2076224
0.016                  0.9999765      -0.2767935
0.02                   0.9999634      -0.3459336
0.024                  0.9999474      -0.4150352
0.028                  0.9999287      -0.4840906
0.032                  0.9999072      -0.5530926
0.036                   0.999883      -0.6220339
0.04                   0.9998563      -0.6909076
0.044                  0.9998268      -0.7597068
0.048                   0.999795      -0.8284248
0.052                  0.9997607      -0.8970553
0.056                  0.9997242      -0.9655919
0.06                   0.9996854       -1.034029
0.064                  0.9996444       -1.102361
0.068                  0.9996014       -1.170582
0.072                  0.9995565       -1.238688
0.076                  0.9995098       -1.306673
0.08                   0.9994615       -1.374534
0.084                  0.9994116       -1.442266
0.088                  0.9993604       -1.509866
0.092                  0.9993079       -1.577331
0.096                  0.9992541       -1.644657
0.1                    0.9991994       -1.711843
0.104                  0.9991438       -1.778886
0.108                  0.9990875       -1.845784
0.112                  0.9990306       -1.912538
0.116                  0.9989732       -1.979144
0.12                   0.9989157       -2.045605
0.124                   0.998858       -2.111918
0.128                  0.9988003       -2.178086
0.132                  0.9987427       -2.244108
0.136                  0.9986856       -2.309987
0.14                   0.9986289       -2.375725
0.144                  0.9985728       -2.441323
0.148                  0.9985175       -2.506784
0.152                  0.9984629       -2.572112
0.156                  0.9984097       -2.637309
0.16                   0.9983574       -2.702381
0.164                  0.9983065       -2.767331
0.168                  0.9982571       -2.832165
0.172                  0.9982094       -2.896887
0.176                  0.9981633       -2.961503
0.18                   0.9981191       -3.026019
0.184                  0.9980767       -3.090441
0.188                  0.9980366       -3.154777
0.192                  0.9979985       -3.219032
0.196                  0.9979627       -3.283215
0.2                    0.9979293       -3.347332
0.204                  0.9978984       -3.411392
0.208                    0.99787       -3.475402
0.212                  0.9978441       -3.539372
0.216                  0.9978211       -3.603309
0.22                   0.9978007       -3.667223
0.224                  0.9977831       -3.731122
0.228                  0.9977684       -3.795015
0.232                  0.9977567       -3.858912
0.236                  0.9977477       -3.922823
0.24                   0.9977418       -3.986756
0.244                  0.9977387       -4.050721
0.248                  0.9977387       -4.114728
0.252                  0.9977416       -4.178786
0.256                  0.9977476       -4.242905
0.26                   0.9977565       -4.307095
0.264                  0.9977684       -4.371364
0.268                  0.9977831       -4.435723
0.272                  0.9978006       -4.500181
0.276                  0.9978211       -4.564747
0.28                   0.9978443        -4.62943
0.284                  0.9978702        -4.69424
0.288                  0.9978987       -4.759185
0.292                  0.9979299       -4.824273
0.296                  0.9979635       -4.889515
0.3                    0.9979995       -4.954916
0.304                  0.9980379       -5.020485
0.308                  0.9980785        -5.08623
0.312                  0.9981212       -5.152159
0.316                  0.9981658       -5.218278
0.32                   0.9982123       -5.284595
0.324                  0.9982606       -5.351114
0.328                  0.9983106       -5.417843
0.332                   0.998362       -5.484787
0.336                  0.9984148       -5.551951
0.34                   0.9984688       -5.619341
0.344                  0.9985239       -5.686961
0.348                  0.9985799       -5.754814
0.352                  0.9986368       -5.822905
0.356                  0.9986942       -5.891235
0.36                   0.9987522        -5.95981
0.364                  0.9988105        -6.02863
0.368                  0.9988689       -6.097697
0.372                  0.9989275       -6.167013
0.376                  0.9989857        -6.23658
0.38                   0.9990436       -6.306397
0.384                  0.9991013       -6.376464
0.388                  0.9991582       -6.446782
0.392                  0.9992144       -6.517349
0.396                  0.9992696       -6.588164
0.4                    0.9993239       -6.659225
0.404                  0.9993769       -6.730531
0.408                  0.9994285       -6.802079
0.412                  0.9994786       -6.873864
0.416                   0.999527       -6.945886
0.42                   0.9995737       -7.018139
0.424                  0.9996184        -7.09062
0.428                  0.9996611       -7.163323
0.432                  0.9997018       -7.236245
0.436                    0.99974       -7.309379
0.44                   0.9997759        -7.38272
0.444                  0.9998093       -7.456263
0.448                  0.9998401       -7.530001
0.452                  0.9998682       -7.603928
0.456                  0.9998935       -7.678037
0.46                   0.9999161       -7.752321
0.464                  0.9999355       -7.826774
0.468                  0.9999521       -7.901386
0.472                  0.9999657       -7.976154
0.476                  0.9999761       -8.051065
0.48                   0.9999832       -8.126116
0.484                  0.9999874       -8.201294
0.488                  0.9999883       -8.276595
0.492                   0.999986        -8.35201
0.496                  0.9999805        -8.42753
0.5                    0.9999716       -8.503147
0.504                  0.9999597       -8.578854
0.508                  0.9999443       -8.654642
0.512                  0.9999259       -8.730503
0.516                  0.9999042       -8.806429
0.52                   0.9998796       -8.882412
0.524                  0.9998516       -8.958446
0.528                  0.9998208        -9.03452
0.532                  0.9997871       -9.110629
0.536                  0.9997504       -9.186764
0.54                   0.9997108       -9.262919
0.544                  0.9996686       -9.339088
0.548                  0.9996237       -9.415262
0.552                  0.9995762       -9.491437
0.556                  0.9995263       -9.567606
0.56                   0.9994742       -9.643763
0.564                  0.9994196       -9.719904
0.568                  0.9993631       -9.796022
0.572                  0.9993046       -9.872114
0.576                  0.9992442       -9.948176
0.58                   0.9991822        -10.0242
0.584                  0.9991186       -10.10019
0.588                  0.9990537       -10.17613
0.592                  0.9989874       -10.25204
0.596                    0.99892       -10.32789
0.6                    0.9988518        -10.4037
0.604                  0.9987828       -10.47946
0.608                  0.9987131       -10.55517
0.612                   0.998643       -10.63083
0.616                  0.9985726       -10.70644
0.62                    0.998502         -10.782
0.624                  0.9984315       -10.85751
0.628                  0.9983612       -10.93297
0.632                  0.9982913        -11.0084
0.636                  0.9982219       -11.08378
0.64                   0.9981532       -11.15912
0.644                  0.9980854       -11.23443
0.648                  0.9980187        -11.3097
0.652                  0.9979531       -11.38496
0.656                  0.9978888       -11.46019
0.66                   0.9978261        -11.5354
0.664                   0.997765       -11.61061
0.668                  0.9977058       -11.68582
0.672                  0.9976483       -11.76103
0.676                   0.997593       -11.83626
0.68                   0.9975399        -11.9115
0.684                  0.9974891       -11.98678
0.688                  0.9974406       -12.06209
0.692                  0.9973948       -12.13745
0.696                  0.9973515       -12.21286
0.7                    0.9973111       -12.28834
0.704                  0.9972735        -12.3639
0.708                  0.9972388       -12.43954
0.712                   0.997207       -12.51528
0.716                  0.9971783       -12.59113
0.72                   0.9971528       -12.66709
0.724                  0.9971304       -12.74318
0.728                  0.9971113       -12.81942
0.732                  0.9970953       -12.89581
0.736                  0.9970826       -12.97236
0.74                   0.9970733       -13.04909
0.744                  0.9970672         -13.126
0.748                  0.9970643       -13.20312
0.752                  0.9970648       -13.28045
0.756                  0.9970685         -13.358
0.76                   0.9970753       -13.43579
0.764                  0.9970854       -13.51383
0.768                  0.9970986       -13.59213
0.772                  0.9971149        -13.6707
0.776                  0.9971341       -13.74955
0.78                   0.9971564       -13.82869
0.784                  0.9971814       -13.90814
0.788                  0.9972092       -13.98791
0.792                  0.9972397         -14.068
0.796                  0.9972727       -14.14844
0.8                    0.9973081       -14.22921
0.804                  0.9973457       -14.31035
0.808                  0.9973857       -14.39185
0.812                  0.9974276       -14.47373
0.816                  0.9974714         -14.556
0.82                   0.9975168       -14.63866
0.824                  0.9975639       -14.72172
0.828                  0.9976124       -14.80519
0.832                  0.9976621       -14.88907
0.836                   0.997713       -14.97338
0.84                   0.9977646       -15.05811
0.844                  0.9978171       -15.14329
0.848                  0.9978699        -15.2289
0.852                  0.9979232       -15.31495
0.856                  0.9979767       -15.40146
0.86                     0.99803       -15.48841
0.864                  0.9980832       -15.57583
0.868                  0.9981358        -15.6637
0.872                  0.9981879       -15.75203
0.876                  0.9982391       -15.84083
0.88                   0.9982893       -15.93008
0.884                  0.9983382        -16.0198
0.888                  0.9983857       -16.10999
0.892                  0.9984317       -16.20063
0.896                  0.9984759       -16.29175
0.9                     0.998518       -16.38331
0.904                   0.998558       -16.47534
0.908                  0.9985957       -16.56782
0.912                  0.9986306       -16.66076
0.916                  0.9986632       -16.75415
0.92                   0.9986926       -16.84798
0.924                  0.9987191       -16.94225
0.928                  0.9987424       -17.03695
0.932                  0.9987623       -17.13209
0.936                  0.9987789       -17.22765
0.94                   0.9987916       -17.32363
0.944                  0.9988007       -17.42002
0.948                  0.9988059       -17.51682
0.952                  0.9988071       -17.61401
0.956                  0.9988043        -17.7116
0.96                   0.9987972       -17.80956
0.964                  0.9987859       -17.90791
0.968                  0.9987702       -18.00662
0.972                    0.99875       -18.10569
0.976                  0.9987254        -18.2051
0.98                   0.9986963       -18.30486
0.984                  0.9986625       -18.40496
0.988                  0.9986242       -18.50538
0.992                  0.9985812       -18.60611
0.996                  0.9985337       -18.70714
1                      0.9984813       -18.80848
1.004                  0.9984245        -18.9101
1.008                   0.998363       -19.01198
1.012                  0.9982969       -19.11417
1.016                  0.9982264       -19.21662
1.02                   0.9981512       -19.31932
1.024                  0.9980716       -19.42223
1.028                  0.9979878       -19.52542
1.032                  0.9978996       -19.62881
1.036                  0.9978073       -19.73246
1.04                   0.9977108       -19.83628
1.044                  0.9976104       -19.94034
1.048                  0.9975061        -20.0446
1.052                   0.997398       -20.14902
1.056                  0.9972864       -20.25366
1.06                   0.9971714       -20.35849
1.064                  0.9970529       -20.46351
1.068                  0.9969314       -20.56867
1.072                  0.9968068       -20.67402
1.076                  0.9966795       -20.77955
1.08                   0.9965494       -20.88523
1.084                  0.9964169        -20.9911
1.088                  0.9962822       -21.09708
1.092                  0.9961454       -21.20325
1.096                  0.9960066       -21.30961
1.1                    0.9958662       -21.41607
1.104                  0.9957243       -21.52273
1.108                   0.995581       -21.62959
1.112                  0.9954368       -21.73655
1.116                  0.9952917       -21.84373
1.12                   0.9951458       -21.95104
1.124                  0.9949996       -22.05858
1.128                  0.9948531       -22.16625
1.132                  0.9947067       -22.27413
1.136                  0.9945603       -22.38221
1.14                   0.9944144       -22.49048
1.144                  0.9942691       -22.59897
1.148                  0.9941245       -22.70768
1.152                  0.9939809       -22.81661
1.156                  0.9938385       -22.92579
1.16                   0.9936974       -23.03521
1.164                  0.9935579        -23.1449
1.168                  0.9934201       -23.25485
1.172                  0.9932842       -23.36509
1.176                  0.9931503       -23.47563
1.18                   0.9930185       -23.58649
1.184                  0.9928892       -23.69767
1.188                  0.9927624       -23.80919
1.192                  0.9926381       -23.92107
1.196                  0.9925165       -24.03332
1.2                    0.9923977       -24.14596
1.204                   0.992282       -24.25901
1.208                  0.9921691       -24.37249
1.212                  0.9920594       -24.48641
1.216                  0.9919528       -24.60079
1.22                   0.9918495       -24.71565
1.224                  0.9917492       -24.83101
1.228                  0.9916525       -24.94688
1.232                  0.9915589        -25.0633
1.236                  0.9914686       -25.18027
1.24                   0.9913816       -25.29782
1.244                  0.9912978       -25.41597
1.248                  0.9912172       -25.53474
1.252                  0.9911398       -25.65415
1.256                  0.9910654       -25.77421
1.26                   0.9909942       -25.89496
1.264                  0.9909258        -26.0164
1.268                  0.9908602       -26.13856
1.272                  0.9907973       -26.26147
1.276                  0.9907371       -26.38513
1.28                   0.9906793       -26.50958
1.284                  0.9906237       -26.63482
1.288                  0.9905703       -26.76088
1.292                  0.9905187       -26.88779
1.296                  0.9904688       -27.01555
1.3                    0.9904207       -27.14418
1.304                  0.9903738       -27.27371
1.308                  0.9903278       -27.40415
1.312                  0.9902828       -27.53552
1.316                  0.9902384       -27.66783
1.32                   0.9901942       -27.80111
1.324                  0.9901502       -27.93536
1.328                   0.990106       -28.07061
1.332                  0.9900613       -28.20686
1.336                  0.9900158       -28.34414
1.34                   0.9899692       -28.48245
1.344                  0.9899212       -28.62181
1.348                  0.9898715       -28.76223
1.352                  0.9898198       -28.90372
1.356                   0.989766        -29.0463
1.36                   0.9897091       -29.18997
1.364                  0.9896496       -29.33473
1.368                  0.9895867       -29.48061
1.372                  0.9895201       -29.62761
1.376                  0.9894494       -29.77574
1.38                   0.9893745       -29.92499
1.384                   0.989295       -30.07539
1.388                  0.9892104       -30.22694
1.392                  0.9891205       -30.37963
1.396                   0.989025       -30.53347
1.4                    0.9889234       -30.68847
1.404                  0.9888155       -30.84463
1.408                   0.988701       -31.00195
1.412                  0.9885796       -31.16043
1.416                  0.9884509       -31.32008
1.42                   0.9883146       -31.48088
1.424                  0.9881704       -31.64285
1.428                   0.988018       -31.80598
1.432                  0.9878574       -31.97027
1.436                  0.9876878       -32.13572
1.44                   0.9875093       -32.30231
1.444                  0.9873216       -32.47006
1.448                  0.9871243       -32.63896
1.452                  0.9869176         -32.809
1.456                  0.9867008       -32.98018
1.46                   0.9864737        -33.1525
1.464                  0.9862363       -33.32594
1.468                  0.9859885        -33.5005
1.472                  0.9857296        -33.6762
1.476                  0.9854601         -33.853
1.48                   0.9851794        -34.0309
1.484                  0.9848877       -34.20991
1.488                  0.9845845       -34.39002
1.492                  0.9842701       -34.57122
1.496                  0.9839439        -34.7535
1.5                    0.9836063       -34.93685
1.504                   0.983257       -35.12128
1.508                  0.9828959       -35.30678
1.512                  0.9825231       -35.49334
1.516                  0.9821385       -35.68097
1.52                   0.9817422       -35.86964
1.524                  0.9813339       -36.05936
1.528                  0.9809141       -36.25012
1.532                  0.9804822       -36.44193
1.536                  0.9800389       -36.63478
1.54                   0.9795838       -36.82866
1.544                  0.9791171       -37.02358
1.548                  0.9786388       -37.21954
1.552                  0.9781492       -37.41652
1.556                  0.9776485       -37.61454
1.56                   0.9771363        -37.8136
1.564                  0.9766131        -38.0137
1.568                   0.976079       -38.21484
1.572                   0.975534       -38.41702
1.576                  0.9749784       -38.62026
1.58                   0.9744123       -38.82455
1.584                  0.9738358       -39.02991
1.588                  0.9732493       -39.23633
1.592                  0.9726527       -39.44384
1.596                  0.9720462       -39.65245
1.6                    0.9714302       -39.86215
1.604                  0.9708048       -40.07298
1.608                  0.9701701       -40.28493
1.612                  0.9695264       -40.49803
1.616                  0.9688736        -40.7123
1.62                   0.9682124       -40.92775
1.624                  0.9675427       -41.14439
1.628                  0.9668646       -41.36227
1.632                  0.9661785       -41.58138
1.636                  0.9654844       -41.80176
1.64                   0.9647825       -42.02344
1.644                  0.9640731       -42.24644
1.648                  0.9633563       -42.47078
1.652                   0.962632        -42.6965
1.656                  0.9619007       -42.92364
1.66                   0.9611623       -43.15221
1.664                   0.960417       -43.38225
1.668                  0.9596649       -43.61381
1.672                  0.9589061       -43.84691
1.676                  0.9581406        -44.0816
1.68                   0.9573686       -44.31791
1.684                    0.95659       -44.55588
1.688                  0.9558049       -44.79556
1.692                  0.9550132       -45.03699
1.696                   0.954215       -45.28022
1.7                      0.95341       -45.52528
1.704                  0.9525986       -45.77223
1.708                  0.9517804       -46.02112
1.712                  0.9509551       -46.27199
1.716                  0.9501232       -46.52491
1.72                    0.949284       -46.77989
1.724                  0.9484374       -47.03703
1.728                  0.9475833       -47.29636
1.732                  0.9467215       -47.55794
1.736                  0.9458517       -47.82182
1.74                   0.9449735       -48.08807
1.744                  0.9440867       -48.35672
1.748                  0.9431909       -48.62785
1.752                  0.9422857       -48.90153
1.756                  0.9413707       -49.17779
1.76                   0.9404456        -49.4567
1.764                  0.9395098       -49.73832
1.768                  0.9385627       -50.02272
1.772                  0.9376039       -50.30995
1.776                   0.936633       -50.60007
1.78                   0.9356492       -50.89315
1.784                  0.9346518       -51.18926
1.788                  0.9336404       -51.48843
1.792                  0.9326142       -51.79075
1.796                  0.9315725       -52.09628
1.8                    0.9305145       -52.40507
1.804                  0.9294396       -52.71718
1.808                  0.9283469       -53.03268
1.812                  0.9272356       -53.35164
1.816                  0.9261049       -53.67409
1.82                   0.9249538       -54.00014
1.824                  0.9237815       -54.32981
1.828                   0.922587       -54.66317
1.832                  0.9213695       -55.00028
1.836                  0.9201278        -55.3412
1.84                   0.9188613         -55.686
1.844                  0.9175685       -56.03473
1.848                  0.9162488       -56.38743
1.852                  0.9149008       -56.74418
1.856                  0.9135236       -57.10503
1.86                   0.9121161       -57.47004
1.864                  0.9106772       -57.83925
1.868                  0.9092059       -58.21273
1.872                  0.9077007       -58.59052
1.876                  0.9061607       -58.97268
1.88                    0.904585       -59.35925
1.884                   0.902972       -59.75031
1.888                  0.9013206       -60.14589
1.892                  0.8996298       -60.54603
1.896                  0.8978984        -60.9508
1.9                     0.896125       -61.36024
1.904                  0.8943086        -61.7744
1.908                   0.892448        -62.1933
1.912                   0.890542       -62.61702
1.916                  0.8885893       -63.04559
1.92                   0.8865888       -63.47905
1.924                  0.8845392       -63.91747
1.928                  0.8824396       -64.36086
1.932                  0.8802885       -64.80928
1.936                  0.8780849       -65.26277
1.94                   0.8758277       -65.72136
1.944                  0.8735158       -66.18509
1.948                  0.8711479       -66.65402
1.952                  0.8687228        -67.1282
1.956                  0.8662398       -67.60763
1.96                   0.8636974       -68.09238
1.964                  0.8610948       -68.58245
1.968                  0.8584311       -69.07792
1.972                  0.8557049       -69.57883
1.976                  0.8529155       -70.08518
1.98                   0.8500619       -70.59706
1.984                   0.847143       -71.11446
1.988                  0.8441581       -71.63744
1.992                  0.8411063       -72.16604
1.996                  0.8379865       -72.70031
2                      0.8347982       -73.24026
2.004                  0.8315404       -73.78597
2.008                  0.8282125       -74.33747
2.012                  0.8248138       -74.89476
2.016                  0.8213435       -75.45793
2.02                    0.817801       -76.02701
2.024                  0.8141857       -76.60206
2.028                   0.810497       -77.18309
2.032                  0.8067345       -77.77017
2.036                  0.8028979       -78.36334
2.04                   0.7989862       -78.96268
2.044                  0.7949996       -79.56819
2.048                  0.7909374       -80.17995
2.052                  0.7867996       -80.79803
2.056                  0.7825857       -81.42248
2.06                   0.7782956       -82.05334
2.064                  0.7739291        -82.6907
2.068                  0.7694862        -83.3346
2.072                  0.7649669       -83.98514
2.076                  0.7603711       -84.64234
2.08                    0.755699       -85.30631
2.084                  0.7509505       -85.97715
2.088                  0.7461259       -86.65489
2.092                  0.7412255       -87.33963
2.096                  0.7362495       -88.03146
2.1                    0.7311983       -88.73049
2.104                  0.7260722        -89.4368
2.108                  0.7208718        -90.1505
2.112                  0.7155975       -90.87169
2.116                  0.7102501        -91.6005
2.12                   0.7048301       -92.33701
2.124                  0.6993382       -93.08136
2.128                  0.6937751       -93.83369
2.132                  0.6881418       -94.59415
2.136                  0.6824392       -95.36286
2.14                   0.6766681       -96.13998
2.144                  0.6708299       -96.92565
2.148                  0.6649253       -97.72007
2.152                  0.6589558       -98.52337
2.156                  0.6529223       -99.33577
2.16                   0.6468266       -100.1575
2.164                  0.6406697       -100.9886
2.168                  0.6344532       -101.8295
2.172                  0.6281787       -102.6803
2.176                  0.6218478       -103.5412
2.18                   0.6154622       -104.4126
2.184                  0.6090236       -105.2946
2.188                   0.602534       -106.1875
2.192                  0.5959953       -107.0917
2.196                  0.5894095       -108.0074
2.2                    0.5827787        -108.935
2.204                  0.5761053       -109.8747
2.208                  0.5693913        -110.827
2.212                  0.5626393       -111.7922
2.216                  0.5558518       -112.7706
2.22                   0.5490314       -113.7628
2.224                  0.5421806       -114.7691
2.228                  0.5353025       -115.7899
2.232                  0.5283997       -116.8258
2.236                  0.5214755       -117.8773
2.24                    0.514533       -118.9448
2.244                  0.5075752       -120.0289
2.248                  0.5006059       -121.1301
2.252                  0.4936282       -122.2492
2.256                   0.486646       -123.3866
2.26                   0.4796631        -124.543
2.264                  0.4726832       -125.7192
2.268                  0.4657107       -126.9158
2.272                  0.4587496       -128.1335
2.276                  0.4518046       -129.3733
2.28                   0.4448799       -130.6357
2.284                  0.4379805       -131.9218
2.288                  0.4311112       -133.2322
2.292                  0.4242772       -134.5681
2.296                  0.4174839       -135.9301
2.3                    0.4107366       -137.3194
2.304                  0.4040413       -138.7369
2.308                  0.3974038       -140.1835
2.312                  0.3908302       -141.6603
2.316                  0.3843271       -143.1684
2.32                   0.3779011       -144.7087
2.324                  0.3715589       -146.2823
2.328                  0.3653079       -147.8903
2.332                  0.3591553       -149.5336
2.336                  0.3531088       -151.2133
2.34                    0.347176       -152.9302
2.344                  0.3413652       -154.6855
2.348                  0.3356847       -156.4798
2.352                   0.330143       -158.3139