! TOUCHSTONE file generated by CST MICROWAVE STUDIO
! Date and time: Sat May 14 10:02:53 2022
! Project name: AppElm_antenne_dipole_Alumina.cst
! Parameters = {L=33; e=0.035; f=2.45e+09; h=1.6; i=0.6; l1=2; lambda=122.449; ls=30; wl=1.7; ws=80}
! Header version: 2018
! Port assignment regex: !\s*Touchstone port\s*([0-9]+)\s*=\s*(CST MWS port|CST DS port)\s*([0-9]+|Zmin|Zmax)\s*\(\"(.*)\"\)(\s*mode\s*([0-9]+))?.*
! Touchstone port assignment:
! Touchstone port 1 = CST MWS port 1 ("")
# GHz S MA R 50
0                      0.9999839              -0
0.004                  0.9999821     -0.06689894
0.008                  0.9999768      -0.1337882
0.012                  0.9999678       -0.200658
0.016                  0.9999553      -0.2674988
0.02                   0.9999395       -0.334301
0.024                  0.9999201      -0.4010551
0.028                  0.9998972      -0.4677519
0.032                  0.9998712      -0.5343822
0.036                  0.9998417       -0.600937
0.04                    0.999809      -0.6674076
0.044                  0.9997732      -0.7337854
0.048                  0.9997345      -0.8000621
0.052                  0.9996928      -0.8662297
0.056                  0.9996483      -0.9322806
0.06                   0.9996011      -0.9982074
0.064                  0.9995514       -1.064003
0.068                  0.9994991       -1.129661
0.072                  0.9994447       -1.195174
0.076                  0.9993878       -1.260538
0.08                   0.9993291       -1.325746
0.084                  0.9992686       -1.390793
0.088                  0.9992061       -1.455676
0.092                  0.9991423        -1.52039
0.096                  0.9990771       -1.584931
0.1                    0.9990107       -1.649295
0.104                  0.9989432       -1.713482
0.108                  0.9988749       -1.777487
0.112                  0.9988057       -1.841311
0.116                  0.9987362       -1.904951
0.12                   0.9986663       -1.968407
0.124                  0.9985965       -2.031679
0.128                  0.9985265       -2.094768
0.132                  0.9984568       -2.157675
0.136                  0.9983875       -2.220401
0.14                   0.9983188       -2.282948
0.144                   0.998251        -2.34532
0.148                   0.998184       -2.407519
0.152                  0.9981182       -2.469549
0.156                  0.9980537       -2.531414
0.16                   0.9979907       -2.593119
0.164                  0.9979292       -2.654671
0.168                  0.9978697       -2.716072
0.172                  0.9978121       -2.777332
0.176                  0.9977566       -2.838455
0.18                   0.9977033        -2.89945
0.184                  0.9976526       -2.960323
0.188                  0.9976042       -3.021084
0.192                  0.9975587        -3.08174
0.196                  0.9975159       -3.142299
0.2                    0.9974759       -3.202772
0.204                  0.9974391       -3.263167
0.208                  0.9974053       -3.323494
0.212                  0.9973748       -3.383764
0.216                  0.9973474       -3.443987
0.22                   0.9973236       -3.504173
0.224                  0.9973031       -3.564333
0.228                  0.9972861       -3.624478
0.232                  0.9972726        -3.68462
0.236                  0.9972627       -3.744769
0.24                   0.9972563       -3.804938
0.244                  0.9972538       -3.865136
0.248                  0.9972548       -3.925377
0.252                  0.9972593       -3.985671
0.256                  0.9972675        -4.04603
0.26                   0.9972794       -4.106466
0.264                  0.9972948        -4.16699
0.268                  0.9973137       -4.227613
0.272                  0.9973362       -4.288349
0.276                   0.997362       -4.349204
0.28                   0.9973912       -4.410193
0.284                  0.9974238       -4.471326
0.288                  0.9974595       -4.532613
0.292                  0.9974983       -4.594064
0.296                  0.9975402        -4.65569
0.3                    0.9975849         -4.7175
0.304                  0.9976325       -4.779503
0.308                  0.9976828       -4.841709
0.312                  0.9977355       -4.904126
0.316                  0.9977906       -4.966763
0.32                   0.9978481       -5.029627
0.324                  0.9979078       -5.092725
0.328                  0.9979691       -5.156066
0.332                  0.9980323       -5.219656
0.336                  0.9980972         -5.2835
0.34                   0.9981635       -5.347604
0.344                  0.9982311       -5.411974
0.348                  0.9982999       -5.476612
0.352                  0.9983694       -5.541526
0.356                  0.9984397       -5.606716
0.36                   0.9985106       -5.672187
0.364                  0.9985817       -5.737941
0.368                  0.9986532       -5.803979
0.372                  0.9987245       -5.870302
0.376                  0.9987955       -5.936913
0.38                   0.9988662       -6.003811
0.384                  0.9989364       -6.070995
0.388                  0.9990057       -6.138466
0.392                  0.9990739       -6.206221
0.396                   0.999141       -6.274258
0.4                    0.9992067       -6.342576
0.404                  0.9992709       -6.411169
0.408                  0.9993333       -6.480037
0.412                   0.999394       -6.549173
0.416                  0.9994526       -6.618575
0.42                   0.9995089       -6.688235
0.424                  0.9995629        -6.75815
0.428                  0.9996144       -6.828314
0.432                   0.999663       -6.898719
0.436                  0.9997091       -6.969359
0.44                   0.9997521       -7.040228
0.444                  0.9997919       -7.111317
0.448                  0.9998286       -7.182618
0.452                   0.999862       -7.254123
0.456                   0.999892       -7.325825
0.46                   0.9999183       -7.397714
0.464                  0.9999414       -7.469778
0.468                  0.9999606       -7.542012
0.472                  0.9999762       -7.614407
0.476                  0.9999879       -7.686948
0.48                   0.9999959        -7.75963
0.484                  0.9999998       -7.832441
0.488                  0.9999999       -7.905372
0.492                  0.9999962        -7.97841
0.496                  0.9999885       -8.051549
0.5                    0.9999769       -8.124776
0.504                  0.9999614       -8.198081
0.508                   0.999942       -8.271454
0.512                  0.9999186       -8.344887
0.516                  0.9998917       -8.418365
0.52                   0.9998609       -8.491883
0.524                  0.9998262        -8.56543
0.528                   0.999788       -8.638995
0.532                  0.9997463       -8.712572
0.536                   0.999701       -8.786148
0.54                   0.9996525       -8.859714
0.544                  0.9996007       -8.933266
0.548                  0.9995456       -9.006793
0.552                  0.9994877       -9.080285
0.556                  0.9994268       -9.153739
0.56                   0.9993632       -9.227144
0.564                   0.999297       -9.300496
0.568                  0.9992283       -9.373788
0.572                  0.9991574       -9.447014
0.576                  0.9990844       -9.520168
0.58                   0.9990094       -9.593248
0.584                  0.9989326       -9.666245
0.588                  0.9988543       -9.739158
0.592                  0.9987746       -9.811985
0.596                  0.9986935       -9.884722
0.6                    0.9986115       -9.957366
0.604                  0.9985288       -10.02992
0.608                  0.9984453       -10.10237
0.612                  0.9983615       -10.17473
0.616                  0.9982776         -10.247
0.62                   0.9981935       -10.31917
0.624                  0.9981097       -10.39126
0.628                  0.9980265       -10.46324
0.632                  0.9979436       -10.53515
0.636                  0.9978616       -10.60697
0.64                   0.9977807       -10.67871
0.644                  0.9977009       -10.75037
0.648                  0.9976226       -10.82196
0.652                   0.997546       -10.89349
0.656                  0.9974711       -10.96496
0.66                    0.997398       -11.03638
0.664                  0.9973273       -11.10776
0.668                  0.9972588       -11.17909
0.672                  0.9971928       -11.25041
0.676                  0.9971296        -11.3217
0.68                   0.9970691       -11.39299
0.684                  0.9970115       -11.46428
0.688                  0.9969571       -11.53558
0.692                  0.9969059        -11.6069
0.696                  0.9968581       -11.67826
0.7                    0.9968138       -11.74966
0.704                   0.996773       -11.82112
0.708                   0.996736       -11.89266
0.712                  0.9967027       -11.96427
0.716                  0.9966732       -12.03599
0.72                   0.9966475       -12.10782
0.724                   0.996626       -12.17977
0.728                  0.9966084       -12.25185
0.732                  0.9965948       -12.32409
0.736                  0.9965854        -12.3965
0.74                   0.9965799       -12.46908
0.744                  0.9965786       -12.54186
0.748                  0.9965813       -12.61485
0.752                  0.9965882       -12.68806
0.756                  0.9965989        -12.7615
0.76                   0.9966137        -12.8352
0.764                  0.9966324       -12.90917
0.768                  0.9966549       -12.98341
0.772                  0.9966811       -13.05795
0.776                  0.9967112       -13.13279
0.78                   0.9967447       -13.20795
0.784                  0.9967817       -13.28345
0.788                  0.9968221       -13.35929
0.792                  0.9968657       -13.43549
0.796                  0.9969124       -13.51206
0.8                     0.996962       -13.58902
0.804                  0.9970144       -13.66636
0.808                  0.9970694       -13.74412
0.812                  0.9971269       -13.82228
0.816                  0.9971865       -13.90088
0.82                   0.9972484        -13.9799
0.824                   0.997312       -14.05937
0.828                  0.9973773        -14.1393
0.832                  0.9974441       -14.21968
0.836                  0.9975121       -14.30053
0.84                   0.9975811       -14.38185
0.844                  0.9976509       -14.46366
0.848                  0.9977214       -14.54595
0.852                   0.997792       -14.62873
0.856                  0.9978629       -14.71201
0.86                   0.9979336       -14.79578
0.864                  0.9980038       -14.88005
0.868                  0.9980735       -14.96483
0.872                  0.9981424       -15.05011
0.876                  0.9982103        -15.1359
0.88                   0.9982766        -15.2222
0.884                  0.9983414         -15.309
0.888                  0.9984046        -15.3963
0.892                  0.9984656       -15.48411
0.896                  0.9985243       -15.57241
0.9                    0.9985806       -15.66122
0.904                  0.9986341       -15.75052
0.908                  0.9986847       -15.84031
0.912                  0.9987322       -15.93058
0.916                  0.9987764       -16.02133
0.92                    0.998817       -16.11256
0.924                  0.9988539       -16.20425
0.928                  0.9988868        -16.2964
0.932                  0.9989157         -16.389
0.936                  0.9989403       -16.48205
0.94                   0.9989605       -16.57554
0.944                   0.998976       -16.66945
0.948                  0.9989869       -16.76378
0.952                  0.9989929       -16.85852
0.956                   0.998994       -16.95365
0.96                   0.9989901       -17.04918
0.964                  0.9989809       -17.14508
0.968                  0.9989666       -17.24134
0.972                  0.9989468       -17.33797
0.976                  0.9989218       -17.43493
0.98                   0.9988912       -17.53224
0.984                  0.9988552       -17.62986
0.988                  0.9988136       -17.72779
0.992                  0.9987668       -17.82602
0.996                  0.9987143       -17.92453
1                      0.9986563       -18.02333
1.004                  0.9985928       -18.12239
1.008                  0.9985239       -18.22169
1.012                  0.9984497       -18.32124
1.016                  0.9983702       -18.42101
1.02                   0.9982854       -18.52103
1.024                  0.9981954       -18.62122
1.028                  0.9981004       -18.72162
1.032                  0.9980005       -18.82224
1.036                  0.9978958         -18.923
1.04                   0.9977864       -19.02392
1.044                  0.9976725       -19.12504
1.048                  0.9975542       -19.22629
1.052                  0.9974316        -19.3277
1.056                  0.9973051       -19.42923
1.06                   0.9971747       -19.53092
1.064                  0.9970406       -19.63269
1.068                  0.9969032       -19.73459
1.072                  0.9967625       -19.83664
1.076                  0.9966188       -19.93876
1.08                   0.9964723       -20.04102
1.084                  0.9963234       -20.14334
1.088                   0.996172       -20.24579
1.092                  0.9960186       -20.34833
1.096                  0.9958634         -20.451
1.1                    0.9957066       -20.55375
1.104                  0.9955486       -20.65659
1.108                  0.9953894       -20.75953
1.112                  0.9952296       -20.86258
1.116                  0.9950692       -20.96572
1.12                   0.9949085       -21.06902
1.124                  0.9947477       -21.17243
1.128                  0.9945873       -21.27594
1.132                  0.9944275       -21.37959
1.136                  0.9942683       -21.48339
1.14                   0.9941102       -21.58733
1.144                  0.9939535       -21.69143
1.148                  0.9937982        -21.7957
1.152                  0.9936448       -21.90015
1.156                  0.9934933       -22.00479
1.16                   0.9933441       -22.10964
1.164                  0.9931974       -22.21471
1.168                  0.9930533       -22.32001
1.172                  0.9929121       -22.42556
1.176                  0.9927741       -22.53137
1.18                   0.9926392       -22.63747
1.184                  0.9925078       -22.74387
1.188                  0.9923799       -22.85059
1.192                  0.9922559       -22.95764
1.196                  0.9921357       -23.06505
1.2                    0.9920196       -23.17283
1.204                  0.9919075       -23.28101
1.208                  0.9917996       -23.38961
1.212                  0.9916961       -23.49865
1.216                   0.991597       -23.60814
1.22                   0.9915023       -23.71812
1.224                  0.9914122        -23.8286
1.228                  0.9913264       -23.93962
1.232                  0.9912453       -24.05118
1.236                  0.9911686       -24.16333
1.24                   0.9910964       -24.27606
1.244                  0.9910287       -24.38943
1.248                  0.9909653       -24.50344
1.252                  0.9909062       -24.61812
1.256                  0.9908514       -24.73349
1.26                   0.9908007       -24.84958
1.264                   0.990754       -24.96641
1.268                  0.9907113       -25.08401
1.272                  0.9906722        -25.2024
1.276                  0.9906366        -25.3216
1.28                   0.9906045       -25.44163
1.284                  0.9905754       -25.56252
1.288                  0.9905494       -25.68429
1.292                  0.9905261       -25.80696
1.296                  0.9905051       -25.93055
1.3                    0.9904865       -26.05509
1.304                  0.9904698       -26.18059
1.308                  0.9904547       -26.30707
1.312                  0.9904411       -26.43455
1.316                  0.9904285       -26.56305
1.32                   0.9904166       -26.69259
1.324                  0.9904051        -26.8232
1.328                  0.9903937       -26.95486
1.332                  0.9903821       -27.08762
1.336                  0.9903697       -27.22148
1.34                   0.9903564       -27.35645
1.344                  0.9903417       -27.49256
1.348                  0.9903252        -27.6298
1.352                  0.9903067        -27.7682
1.356                  0.9902855       -27.90776
1.36                   0.9902615        -28.0485
1.364                  0.9902342       -28.19042
1.368                  0.9902031       -28.33353
1.372                  0.9901679       -28.47784
1.376                  0.9901282       -28.62335
1.38                   0.9900837       -28.77007
1.384                  0.9900337         -28.918
1.388                  0.9899781       -29.06715
1.392                  0.9899164       -29.21752
1.396                  0.9898483       -29.36911
1.4                    0.9897731       -29.52193
1.404                  0.9896908       -29.67598
1.408                  0.9896008       -29.83124
1.412                  0.9895029       -29.98771
1.416                  0.9893966       -30.14542
1.42                   0.9892816       -30.30433
1.424                  0.9891576       -30.46446
1.428                  0.9890241        -30.6258
1.432                  0.9888811       -30.78833
1.436                  0.9887279       -30.95206
1.44                   0.9885646       -31.11699
1.444                  0.9883907        -31.2831
1.448                  0.9882058       -31.45038
1.452                  0.9880099       -31.61884
1.456                  0.9878027       -31.78845
1.46                   0.9875838       -31.95921
1.464                  0.9873534       -32.13112
1.468                  0.9871108       -32.30416
1.472                  0.9868563       -32.47833
1.476                  0.9865892       -32.65361
1.48                   0.9863099       -32.82999
1.484                   0.986018       -33.00747
1.488                  0.9857134       -33.18604
1.492                  0.9853961       -33.36568
1.496                  0.9850659       -33.54639
1.5                    0.9847228       -33.72815
1.504                  0.9843668       -33.91097
1.508                  0.9839978       -34.09481
1.512                   0.983616       -34.27969
1.516                  0.9832211        -34.4656
1.52                   0.9828134       -34.65251
1.524                  0.9823929       -34.84042
1.528                  0.9819596       -35.02935
1.532                  0.9815136       -35.21925
1.536                   0.981055       -35.41015
1.54                   0.9805841       -35.60203
1.544                  0.9801008       -35.79489
1.548                  0.9796052       -35.98872
1.552                  0.9790976       -36.18353
1.556                  0.9785782       -36.37931
1.56                   0.9780473       -36.57607
1.564                  0.9775049       -36.77378
1.568                  0.9769513       -36.97248
1.572                  0.9763866       -37.17216
1.576                  0.9758113       -37.37282
1.58                   0.9752254       -37.57446
1.584                  0.9746293       -37.77711
1.588                  0.9740232       -37.98075
1.592                  0.9734073       -38.18541
1.596                  0.9727819       -38.39109
1.6                    0.9721476       -38.59781
1.604                  0.9715042       -38.80559
1.608                  0.9708522       -39.01443
1.612                  0.9701919       -39.22437
1.616                  0.9695234        -39.4354
1.62                   0.9688474       -39.64756
1.624                  0.9681638       -39.86087
1.628                   0.967473       -40.07535
1.632                  0.9667754       -40.29102
1.636                   0.966071       -40.50793
1.64                   0.9653601       -40.72609
1.644                  0.9646431       -40.94554
1.648                  0.9639202       -41.16631
1.652                  0.9631916       -41.38844
1.656                  0.9624575       -41.61195
1.66                   0.9617181        -41.8369
1.664                  0.9609735       -42.06331
1.668                  0.9602239       -42.29124
1.672                  0.9594697       -42.52072
1.676                  0.9587106        -42.7518
1.68                   0.9579471       -42.98452
1.684                   0.957179       -43.21894
1.688                  0.9564065        -43.4551
1.692                  0.9556295       -43.69306
1.696                  0.9548482       -43.93288
1.7                    0.9540624       -44.17458
1.704                  0.9532722       -44.41826
1.708                  0.9524774       -44.66395
1.712                  0.9516781       -44.91171
1.716                  0.9508739       -45.16161
1.72                   0.9500649        -45.4137
1.724                  0.9492507       -45.66806
1.728                  0.9484312       -45.92473
1.732                   0.947606       -46.18379
1.736                  0.9467749       -46.44529
1.74                   0.9459375       -46.70933
1.744                  0.9450936       -46.97594
1.748                  0.9442427       -47.24521
1.752                  0.9433844        -47.5172
1.756                   0.942518       -47.79197
1.76                   0.9416432       -48.06962
1.764                  0.9407596       -48.35018
1.768                  0.9398663       -48.63375
1.772                  0.9389628       -48.92039
1.776                  0.9380485       -49.21018
1.78                   0.9371227       -49.50317
1.784                  0.9361847       -49.79945
1.788                  0.9352335       -50.09909
1.792                  0.9342686       -50.40215
1.796                  0.9332891       -50.70872
1.8                     0.932294       -51.01886
1.804                  0.9312825       -51.33262
1.808                  0.9302537       -51.65012
1.812                  0.9292065       -51.97138
1.816                    0.92814        -52.2965
1.82                   0.9270531       -52.62554
1.824                  0.9259448       -52.95856
1.828                   0.924814       -53.29565
1.832                  0.9236596       -53.63685
1.836                  0.9224805       -53.98224
1.84                   0.9212753       -54.33189
1.844                  0.9200431       -54.68586
1.848                  0.9187826       -55.04422
1.852                  0.9174925       -55.40702
1.856                  0.9161715       -55.77434
1.86                   0.9148184       -56.14623
1.864                  0.9134318       -56.52274
1.868                  0.9120107       -56.90395
1.872                  0.9105535       -57.28991
1.876                  0.9090589       -57.68068
1.88                   0.9075256       -58.07631
1.884                  0.9059522       -58.47686
1.888                  0.9043374       -58.88239
1.892                  0.9026798       -59.29295
1.896                   0.900978       -59.70859
1.9                    0.8992307       -60.12936
1.904                  0.8974365       -60.55532
1.908                  0.8955939       -60.98652
1.912                  0.8937017       -61.42298
1.916                  0.8917584        -61.8648
1.92                   0.8897628       -62.31199
1.924                  0.8877134       -62.76458
1.928                  0.8856088       -63.22267
1.932                  0.8834479       -63.68628
1.936                  0.8812292       -64.15544
1.94                   0.8789514       -64.63021
1.944                  0.8766133       -65.11062
1.948                  0.8742136       -65.59674
1.952                  0.8717509       -66.08859
1.956                  0.8692243       -66.58621
1.96                   0.8666324       -67.08967
1.964                  0.8639739       -67.59898
1.968                  0.8612479       -68.11419
1.972                  0.8584532       -68.63535
1.976                  0.8555886        -69.1625
1.98                   0.8526531        -69.6957
1.984                  0.8496457       -70.23494
1.988                  0.8465654       -70.78033
1.992                  0.8434113       -71.33186
1.996                  0.8401824       -71.88959
2                      0.8368779       -72.45359
2.004                  0.8334968       -73.02388
2.008                  0.8300385        -73.6005
2.012                  0.8265022       -74.18353
2.016                  0.8228873       -74.77299
2.02                   0.8191928       -75.36893
2.024                  0.8154184       -75.97144
2.028                  0.8115636       -76.58053
2.032                  0.8076276       -77.19627
2.036                  0.8036102       -77.81871
2.04                   0.7995108       -78.44793
2.044                  0.7953292       -79.08398
2.048                  0.7910649       -79.72692
2.052                  0.7867181       -80.37683
2.056                  0.7822881       -81.03377
2.06                    0.777775       -81.69781
2.064                  0.7731788       -82.36903
2.068                  0.7684995       -83.04751
2.072                  0.7637371       -83.73335
2.076                  0.7588917       -84.42661
2.08                   0.7539636       -85.12739
2.084                  0.7489529       -85.83579
2.088                  0.7438601       -86.55192
2.092                  0.7386854       -87.27587
2.096                  0.7334294       -88.00775
2.1                    0.7280925       -88.74769
2.104                  0.7226755        -89.4958
2.108                  0.7171789       -90.25222
2.112                  0.7116034       -91.01707
2.116                  0.7059499       -91.79051
2.12                   0.7002193       -92.57269
2.124                  0.6944126       -93.36375
2.128                  0.6885307       -94.16388
2.132                  0.6825749       -94.97323
2.136                  0.6765463       -95.79199
2.14                   0.6704462       -96.62037
2.144                  0.6642758       -97.45856
2.148                  0.6580368       -98.30676
2.152                  0.6517307       -99.16522
2.156                  0.6453589       -100.0342
2.16                   0.6389234       -100.9138
2.164                  0.6324258       -101.8045
2.168                   0.625868       -102.7064
2.172                  0.6192521       -103.6199
2.176                  0.6125799       -104.5453
2.18                    0.605854       -105.4829
2.184                  0.5990763        -106.433
2.188                  0.5922495       -107.3959
2.192                  0.5853758       -108.3722
2.196                  0.5784579        -109.362
2.2                    0.5714985       -110.3659
2.204                  0.5645005       -111.3844
2.208                  0.5574669       -112.4178
2.212                  0.5504004       -113.4666
2.216                  0.5433047       -114.5313
2.22                   0.5361827       -115.6125
2.224                  0.5290381       -116.7107
2.228                  0.5218743       -117.8265
2.232                  0.5146952       -118.9605
2.236                  0.5075047       -120.1134
2.24                   0.5003069       -121.2858
2.244                  0.4931057       -122.4784
2.248                  0.4859058       -123.6919
2.252                  0.4787116       -124.9271
2.256                  0.4715278       -126.1848
2.26                   0.4643596       -127.4658
2.264                  0.4572118       -128.7711
2.268                  0.4500899       -130.1013
2.272                  0.4429994       -131.4576
2.276                  0.4359461       -132.8408
2.28                   0.4289359        -134.252
2.284                  0.4219752       -135.6921
2.288                  0.4150704       -137.1622
2.292                  0.4082282       -138.6633
2.296                  0.4014556       -140.1965
2.3                    0.3947599       -141.7629
2.304                  0.3881485       -143.3635
2.308                  0.3816293       -144.9995
2.312                  0.3752104        -146.672
2.316                  0.3689003       -148.3819
2.32                   0.3627072       -150.1302
2.324                  0.3566403        -151.918
2.328                  0.3507086       -153.7461
2.332                  0.3449215       -155.6154
2.336                  0.3392887       -157.5265
2.34                   0.3338198       -159.4799
2.344                  0.3285248       -161.4762
2.348                  0.3234138       -163.5156
2.352                  0.3184969        -165.598