! TOUCHSTONE file generated by CST MICROWAVE STUDIO
! Date and time: Sat May 14 10:02:55 2022
! Project name: AppElm_antenne_dipole_Alumina.cst
! Parameters = {L=33; e=0.035; f=2.45e+09; h=1.6; i=0.68; l1=2; lambda=122.449; ls=30; wl=1.7; ws=80}
! Header version: 2018
! Port assignment regex: !\s*Touchstone port\s*([0-9]+)\s*=\s*(CST MWS port|CST DS port)\s*([0-9]+|Zmin|Zmax)\s*\(\"(.*)\"\)(\s*mode\s*([0-9]+))?.*
! Touchstone port assignment:
! Touchstone port 1 = CST MWS port 1 ("")
# GHz S MA R 50
0                      0.9999982              -0
0.004                  0.9999965     -0.06791758
0.008                  0.9999917      -0.1358265
0.012                  0.9999837      -0.2037183
0.016                  0.9999726      -0.2715843
0.02                   0.9999583       -0.339416
0.024                  0.9999409      -0.4072051
0.028                  0.9999204      -0.4749433
0.032                  0.9998969      -0.5426225
0.036                  0.9998706      -0.6102346
0.04                   0.9998413      -0.6777721
0.044                  0.9998092      -0.7452272
0.048                  0.9997743      -0.8125928
0.052                  0.9997369      -0.8798614
0.056                   0.999697      -0.9470265
0.06                   0.9996546       -1.014082
0.064                  0.9996099        -1.08102
0.068                  0.9995629       -1.147837
0.072                  0.9995141       -1.214526
0.076                  0.9994632       -1.281081
0.08                   0.9994105         -1.3475
0.084                   0.999356       -1.413775
0.088                  0.9993001       -1.479905
0.092                  0.9992427       -1.545885
0.096                  0.9991841       -1.611712
0.1                    0.9991245       -1.677383
0.104                  0.9990638       -1.742896
0.108                  0.9990024        -1.80825
0.112                  0.9989404       -1.873442
0.116                  0.9988779       -1.938472
0.12                   0.9988151        -2.00334
0.124                  0.9987523       -2.068045
0.128                  0.9986894       -2.132589
0.132                  0.9986267       -2.196971
0.136                  0.9985645       -2.261195
0.14                   0.9985026       -2.325261
0.144                  0.9984416       -2.389171
0.148                  0.9983814       -2.452931
0.152                  0.9983221       -2.516541
0.156                  0.9982641       -2.580007
0.16                   0.9982074       -2.643332
0.164                  0.9981521       -2.706522
0.168                  0.9980984       -2.769582
0.172                  0.9980465       -2.832517
0.176                  0.9979965       -2.895333
0.18                   0.9979485       -2.958037
0.184                  0.9979027       -3.020636
0.188                  0.9978591       -3.083137
0.192                  0.9978178       -3.145548
0.196                  0.9977792       -3.207875
0.2                    0.9977431       -3.270129
0.204                  0.9977097       -3.332316
0.208                  0.9976791       -3.394447
0.212                  0.9976515        -3.45653
0.216                  0.9976266       -3.518575
0.22                   0.9976048        -3.58059
0.224                  0.9975861       -3.642586
0.228                  0.9975705       -3.704573
0.232                   0.997558       -3.766561
0.236                  0.9975489       -3.828559
0.24                   0.9975429       -3.890579
0.244                  0.9975401        -3.95263
0.248                  0.9975406       -4.014724
0.252                  0.9975443       -4.076869
0.256                  0.9975514       -4.139078
0.26                   0.9975615        -4.20136
0.264                   0.997575       -4.263726
0.268                  0.9975916       -4.326186
0.272                  0.9976114       -4.388749
0.276                  0.9976343       -4.451426
0.28                     0.99766       -4.514229
0.284                  0.9976888       -4.577165
0.288                  0.9977205       -4.640245
0.292                   0.997755       -4.703477
0.296                  0.9977922       -4.766871
0.3                    0.9978321       -4.830435
0.304                  0.9978745        -4.89418
0.308                  0.9979191       -4.958112
0.312                  0.9979662       -5.022237
0.316                  0.9980154       -5.086567
0.32                   0.9980666       -5.151107
0.324                  0.9981198       -5.215864
0.328                  0.9981746       -5.280844
0.332                  0.9982312       -5.346053
0.336                  0.9982892       -5.411497
0.34                   0.9983485       -5.477182
0.344                  0.9984089       -5.543112
0.348                  0.9984704       -5.609291
0.352                  0.9985326       -5.675722
0.356                  0.9985956        -5.74241
0.36                    0.998659       -5.809358
0.364                  0.9987229       -5.876565
0.368                  0.9987867       -5.944038
0.372                  0.9988506       -6.011774
0.376                  0.9989144       -6.079776
0.38                   0.9989778       -6.148044
0.384                  0.9990407       -6.216578
0.388                  0.9991027       -6.285377
0.392                  0.9991641        -6.35444
0.396                  0.9992244       -6.423766
0.4                    0.9992834       -6.493352
0.404                   0.999341       -6.563196
0.408                  0.9993973       -6.633295
0.412                  0.9994518       -6.703646
0.416                  0.9995044       -6.774244
0.42                   0.9995551       -6.845085
0.424                  0.9996037       -6.916166
0.428                    0.99965       -6.987479
0.432                   0.999694        -7.05902
0.436                  0.9997354       -7.130784
0.44                   0.9997742       -7.202763
0.444                  0.9998103       -7.274949
0.448                  0.9998434        -7.34734
0.452                  0.9998737       -7.419926
0.456                  0.9999008       -7.492698
0.46                   0.9999249        -7.56565
0.464                  0.9999456       -7.638775
0.468                  0.9999632       -7.712062
0.472                  0.9999774       -7.785505
0.476                  0.9999881       -7.859095
0.48                   0.9999956        -7.93282
0.484                  0.9999995       -8.006677
0.488                          1       -8.080653
0.492                  0.9999968       -8.154741
0.496                  0.9999902        -8.22893
0.5                      0.99998       -8.303211
0.504                  0.9999664       -8.377578
0.508                   0.999949        -8.45202
0.512                  0.9999283       -8.526527
0.516                  0.9999042       -8.601092
0.52                   0.9998767       -8.675704
0.524                  0.9998459       -8.750357
0.528                  0.9998116       -8.825042
0.532                  0.9997745       -8.899748
0.536                   0.999734       -8.974471
0.54                   0.9996904       -9.049201
0.544                  0.9996438        -9.12393
0.548                  0.9995945       -9.198653
0.552                  0.9995425       -9.273359
0.556                  0.9994877       -9.348046
0.56                   0.9994307       -9.422705
0.564                   0.999371        -9.49733
0.568                  0.9993091       -9.571918
0.572                  0.9992451        -9.64646
0.576                  0.9991794       -9.720955
0.58                   0.9991117       -9.795396
0.584                  0.9990424        -9.86978
0.588                  0.9989717       -9.944104
0.592                  0.9988996       -10.01837
0.596                  0.9988265       -10.09256
0.6                    0.9987523       -10.16669
0.604                  0.9986774       -10.24075
0.608                  0.9986019       -10.31474
0.612                   0.998526       -10.38866
0.616                  0.9984497       -10.46251
0.62                   0.9983735        -10.5363
0.624                  0.9982973       -10.61001
0.628                  0.9982215       -10.68366
0.632                  0.9981462       -10.75725
0.636                  0.9980715       -10.83078
0.64                   0.9979977       -10.90425
0.644                  0.9979249       -10.97768
0.648                  0.9978534       -11.05105
0.652                  0.9977831       -11.12438
0.656                  0.9977144       -11.19768
0.66                   0.9976475       -11.27094
0.664                  0.9975825       -11.34418
0.668                  0.9975195       -11.41741
0.672                  0.9974586       -11.49063
0.676                  0.9974001       -11.56384
0.68                   0.9973441       -11.63707
0.684                  0.9972905       -11.71031
0.688                  0.9972399       -11.78358
0.692                  0.9971919       -11.85689
0.696                  0.9971471       -11.93024
0.7                    0.9971053       -12.00365
0.704                  0.9970665       -12.07713
0.708                  0.9970312       -12.15069
0.712                  0.9969991       -12.22434
0.716                  0.9969703        -12.2981
0.72                   0.9969452       -12.37197
0.724                  0.9969235       -12.44597
0.728                  0.9969054       -12.52011
0.732                  0.9968909       -12.59441
0.736                  0.9968799       -12.66886
0.74                   0.9968725        -12.7435
0.744                  0.9968688       -12.81833
0.748                  0.9968688       -12.89336
0.752                  0.9968723       -12.96861
0.756                  0.9968795        -13.0441
0.76                   0.9968901       -13.11982
0.764                  0.9969043        -13.1958
0.768                  0.9969218       -13.27205
0.772                  0.9969429       -13.34858
0.776                   0.996967       -13.42541
0.78                   0.9969946       -13.50254
0.784                  0.9970251       -13.57998
0.788                  0.9970587       -13.65776
0.792                  0.9970952       -13.73588
0.796                  0.9971344       -13.81435
0.8                    0.9971762       -13.89319
0.804                  0.9972206        -13.9724
0.808                  0.9972674       -14.05199
0.812                  0.9973163       -14.13198
0.816                  0.9973673       -14.21237
0.82                   0.9974201       -14.29317
0.824                  0.9974745       -14.37439
0.828                  0.9975306       -14.45604
0.832                  0.9975879       -14.53813
0.836                  0.9976464       -14.62066
0.84                   0.9977058       -14.70363
0.844                  0.9977659       -14.78706
0.848                  0.9978266       -14.87095
0.852                  0.9978876       -14.95531
0.856                  0.9979487       -15.04013
0.86                   0.9980097       -15.12543
0.864                  0.9980704        -15.2112
0.868                  0.9981305       -15.29746
0.872                  0.9981899       -15.38419
0.876                  0.9982485        -15.4714
0.88                   0.9983058       -15.55909
0.884                  0.9983617       -15.64726
0.888                  0.9984159       -15.73592
0.892                  0.9984684       -15.82506
0.896                  0.9985189       -15.91467
0.9                    0.9985672       -16.00476
0.904                   0.998613       -16.09532
0.908                  0.9986563       -16.18636
0.912                  0.9986967       -16.27786
0.916                  0.9987341       -16.36982
0.92                   0.9987683       -16.46224
0.924                  0.9987992       -16.55511
0.928                  0.9988266       -16.64842
0.932                  0.9988503       -16.74217
0.936                  0.9988701       -16.83636
0.94                    0.998886       -16.93097
0.944                  0.9988978         -17.026
0.948                  0.9989053       -17.12144
0.952                  0.9989084       -17.21728
0.956                  0.9989071       -17.31351
0.96                   0.9989013       -17.41013
0.964                  0.9988907       -17.50713
0.968                  0.9988753       -17.60449
0.972                  0.9988551        -17.7022
0.976                  0.9988302       -17.80026
0.98                   0.9988001       -17.89866
0.984                  0.9987653       -17.99739
0.988                  0.9987253       -18.09643
0.992                  0.9986804       -18.19578
0.996                  0.9986304       -18.29542
1                      0.9985754       -18.39536
1.004                  0.9985155       -18.49556
1.008                  0.9984505       -18.59604
1.012                  0.9983808       -18.69678
1.016                   0.998306       -18.79776
1.02                   0.9982266       -18.89896
1.024                  0.9981424        -19.0004
1.028                  0.9980534       -19.10209
1.032                    0.99796       -19.20394
1.036                  0.9978621       -19.30604
1.04                     0.99776        -19.4083
1.044                  0.9976535       -19.51078
1.048                  0.9975431        -19.6134
1.052                  0.9974285       -19.71623
1.056                  0.9973104       -19.81918
1.06                   0.9971886       -19.92234
1.064                  0.9970633       -20.02561
1.068                  0.9969348       -20.12905
1.072                  0.9968032       -20.23265
1.076                  0.9966688       -20.33636
1.08                   0.9965316       -20.44026
1.084                   0.996392       -20.54424
1.088                  0.9962501       -20.64842
1.092                  0.9961062       -20.75264
1.096                  0.9959604       -20.85709
1.1                    0.9958131       -20.96165
1.104                  0.9956644       -21.06631
1.108                  0.9955144       -21.17112
1.112                  0.9953636       -21.27608
1.116                  0.9952121       -21.38116
1.12                   0.9950601       -21.48643
1.124                   0.994908       -21.59183
1.128                  0.9947557       -21.69738
1.132                  0.9946038        -21.8031
1.136                  0.9944524         -21.909
1.14                   0.9943016       -22.01507
1.144                  0.9941518       -22.12133
1.148                  0.9940031       -22.22779
1.152                  0.9938557       -22.33445
1.156                    0.99371       -22.44134
1.16                   0.9935659       -22.54845
1.164                  0.9934238       -22.65581
1.168                  0.9932841       -22.76343
1.172                  0.9931466       -22.87131
1.176                  0.9930117       -22.97949
1.18                   0.9928792       -23.08796
1.184                  0.9927499       -23.19674
1.188                  0.9926234       -23.30586
1.192                  0.9925001       -23.41533
1.196                    0.99238       -23.52517
1.2                    0.9922633       -23.63539
1.204                    0.99215       -23.74602
1.208                  0.9920404       -23.85707
1.212                  0.9919344       -23.96856
1.216                  0.9918321       -24.08052
1.22                   0.9917335       -24.19296
1.224                  0.9916388       -24.30591
1.228                  0.9915477       -24.41938
1.232                  0.9914608       -24.53339
1.236                  0.9913775       -24.64797
1.24                    0.991298       -24.76314
1.244                  0.9912225       -24.87892
1.248                  0.9911505       -24.99534
1.252                  0.9910824       -25.11241
1.256                  0.9910177       -25.23016
1.26                   0.9909566        -25.3486
1.264                   0.990899       -25.46777
1.268                  0.9908446       -25.58768
1.272                  0.9907934       -25.70835
1.276                  0.9907451        -25.8298
1.28                   0.9906997       -25.95207
1.284                  0.9906569       -26.07516
1.288                  0.9906167        -26.1991
1.292                  0.9905786       -26.32391
1.296                  0.9905428        -26.4496
1.3                    0.9905086       -26.57621
1.304                  0.9904761       -26.70374
1.308                  0.9904449       -26.83221
1.312                  0.9904148       -26.96166
1.316                  0.9903854       -27.09207
1.32                   0.9903567       -27.22349
1.324                  0.9903279       -27.35593
1.328                  0.9902993       -27.48939
1.332                  0.9902701        -27.6239
1.336                  0.9902402       -27.75946
1.34                   0.9902094        -27.8961
1.344                  0.9901769       -28.03383
1.348                  0.9901429       -28.17265
1.352                  0.9901068       -28.31259
1.356                  0.9900681       -28.45364
1.36                   0.9900267       -28.59583
1.364                  0.9899822       -28.73915
1.368                  0.9899341       -28.88362
1.372                  0.9898821       -29.02925
1.376                   0.989826       -29.17604
1.38                    0.989765         -29.324
1.384                  0.9896993       -29.47313
1.388                  0.9896283       -29.62345
1.392                  0.9895514       -29.77494
1.396                  0.9894685       -29.92762
1.4                    0.9893792       -30.08148
1.404                  0.9892832       -30.23653
1.408                  0.9891801       -30.39278
1.412                  0.9890695       -30.55021
1.416                  0.9889511       -30.70883
1.42                   0.9888247       -30.86864
1.424                  0.9886898       -31.02963
1.428                  0.9885463        -31.1918
1.432                  0.9883937       -31.35516
1.436                  0.9882318       -31.51969
1.44                   0.9880602       -31.68539
1.444                  0.9878789       -31.85225
1.448                  0.9876874       -32.02028
1.452                  0.9874857       -32.18946
1.456                  0.9872732       -32.35979
1.46                     0.98705       -32.53127
1.464                  0.9868159       -32.70387
1.468                  0.9865704       -32.87761
1.472                  0.9863138       -33.05247
1.476                  0.9860455       -33.22844
1.48                   0.9857655       -33.40552
1.484                  0.9854737        -33.5837
1.488                    0.98517       -33.76297
1.492                  0.9848543       -33.94333
1.496                  0.9845264       -34.12477
1.5                    0.9841865       -34.30726
1.504                  0.9838342       -34.49083
1.508                  0.9834697       -34.67544
1.512                  0.9830929       -34.86111
1.516                  0.9827039       -35.04782
1.52                   0.9823026       -35.23556
1.524                  0.9818889       -35.42433
1.528                  0.9814631       -35.61413
1.532                  0.9810251       -35.80495
1.536                  0.9805751       -35.99678
1.54                   0.9801131       -36.18963
1.544                   0.979639       -36.38349
1.548                  0.9791534       -36.57836
1.552                  0.9786559       -36.77424
1.556                   0.978147       -36.97112
1.56                   0.9776266       -37.16902
1.564                  0.9770952       -37.36792
1.568                  0.9765526       -37.56784
1.572                  0.9759992       -37.76877
1.576                  0.9754351       -37.97072
1.58                   0.9748605       -38.17371
1.584                  0.9742758       -38.37772
1.588                  0.9736809       -38.58279
1.592                  0.9730762       -38.78891
1.596                  0.9724617       -38.99609
1.6                     0.971838       -39.20435
1.604                  0.9712053       -39.41369
1.608                  0.9705636       -39.62415
1.612                  0.9699131       -39.83572
1.616                  0.9692543       -40.04844
1.62                   0.9685871       -40.26233
1.624                   0.967912       -40.47739
1.628                  0.9672292       -40.69365
1.632                  0.9665387       -40.91115
1.636                   0.965841       -41.12989
1.64                   0.9651361       -41.34992
1.644                  0.9644244       -41.57126
1.648                   0.963706       -41.79394
1.652                  0.9629809       -42.01799
1.656                  0.9622497       -42.24345
1.66                    0.961512       -42.47035
1.664                  0.9607684       -42.69873
1.668                  0.9600188       -42.92862
1.672                  0.9592634       -43.16008
1.676                  0.9585023       -43.39313
1.68                   0.9577355       -43.62782
1.684                  0.9569633       -43.86419
1.688                  0.9561852       -44.10231
1.692                  0.9554017        -44.3422
1.696                  0.9546127       -44.58391
1.7                    0.9538182        -44.8275
1.704                  0.9530179       -45.07302
1.708                  0.9522119       -45.32053
1.712                  0.9514002       -45.57006
1.716                  0.9505824       -45.82169
1.72                   0.9497585       -46.07547
1.724                  0.9489283       -46.33145
1.728                  0.9480917       -46.58969
1.732                  0.9472482       -46.85024
1.736                  0.9463976       -47.11319
1.74                   0.9455396       -47.37857
1.744                   0.944674       -47.64647
1.748                  0.9438002       -47.91692
1.752                  0.9429179       -48.19001
1.756                  0.9420268       -48.46579
1.76                    0.941126       -48.74433
1.764                  0.9402155       -49.02569
1.768                  0.9392945       -49.30994
1.772                  0.9383625       -49.59716
1.776                  0.9374188       -49.88738
1.78                   0.9364628        -50.1807
1.784                  0.9354937       -50.47717
1.788                  0.9345111       -50.77686
1.792                  0.9335142       -51.07982
1.796                   0.932502       -51.38616
1.8                    0.9314738        -51.6959
1.804                  0.9304289       -52.00912
1.808                  0.9293663       -52.32591
1.812                  0.9282852        -52.6463
1.816                  0.9271847       -52.97038
1.82                   0.9260636        -53.2982
1.824                  0.9249212       -53.62983
1.828                  0.9237564       -53.96533
1.832                  0.9225681       -54.30478
1.836                  0.9213556       -54.64822
1.84                   0.9201173       -54.99572
1.844                  0.9188524       -55.34735
1.848                  0.9175597       -55.70316
1.852                  0.9162381       -56.06322
1.856                  0.9148864       -56.42758
1.86                   0.9135034        -56.7963
1.864                  0.9120881       -57.16944
1.868                  0.9106391       -57.54706
1.872                  0.9091551       -57.92922
1.876                  0.9076351       -58.31596
1.88                   0.9060777       -58.70734
1.884                  0.9044817       -59.10341
1.888                  0.9028458       -59.50423
1.892                  0.9011687       -59.90986
1.896                  0.8994492       -60.32033
1.9                     0.897686        -60.7357
1.904                  0.8958779       -61.15602
1.908                  0.8940233       -61.58135
1.912                  0.8921214       -62.01171
1.916                  0.8901704       -62.44716
1.92                   0.8881696       -62.88775
1.924                  0.8861173       -63.33352
1.928                  0.8840123       -63.78452
1.932                  0.8818535       -64.24079
1.936                  0.8796396       -64.70238
1.94                   0.8773693       -65.16933
1.944                  0.8750416       -65.64166
1.948                  0.8726551       -66.11945
1.952                  0.8702087       -66.60271
1.956                  0.8677012       -67.09151
1.96                   0.8651316       -67.58586
1.964                  0.8624986       -68.08582
1.968                  0.8598012       -68.59142
1.972                  0.8570385       -69.10272
1.976                  0.8542091       -69.61974
1.98                   0.8513123       -70.14253
1.984                  0.8483469       -70.67113
1.988                  0.8453122       -71.20555
1.992                   0.842207        -71.7459
1.996                  0.8390307       -72.29218
2                      0.8357824       -72.84441
2.004                  0.8324611       -73.40267
2.008                  0.8290663         -73.967
2.012                   0.825597       -74.53744
2.016                  0.8220526       -75.11403
2.02                   0.8184327       -75.69681
2.024                  0.8147363       -76.28586
2.028                  0.8109631       -76.88121
2.032                  0.8071126       -77.48289
2.036                  0.8031842       -78.09098
2.04                   0.7991776       -78.70554
2.044                  0.7950923       -79.32662
2.048                  0.7909281       -79.95426
2.052                  0.7866847       -80.58854
2.056                   0.782362       -81.22951
2.06                   0.7779596       -81.87727
2.064                  0.7734777       -82.53185
2.068                   0.768916       -83.19334
2.072                  0.7642745       -83.86181
2.076                  0.7595535       -84.53736
2.08                   0.7547529       -85.22003
2.084                  0.7498732       -85.90995
2.088                  0.7449142       -86.60719
2.092                  0.7398765       -87.31185
2.096                  0.7347604       -88.02402
2.1                    0.7295664        -88.7438
2.104                  0.7242949       -89.47132
2.108                  0.7189465       -90.20669
2.112                   0.713522       -90.95003
2.116                  0.7080217       -91.70145
2.12                   0.7024467        -92.4611
2.124                  0.6967978       -93.22914
2.128                  0.6910758       -94.00568
2.132                  0.6852817       -94.79088
2.136                  0.6794166       -95.58491
2.14                   0.6734816       -96.38795
2.144                  0.6674779       -97.20019
2.148                  0.6614069       -98.02178
2.152                  0.6552696       -98.85296
2.156                  0.6490678       -99.69392
2.16                   0.6428029       -100.5449
2.164                  0.6364764       -101.4061
2.168                  0.6300901       -102.2777
2.172                  0.6236455       -103.1601
2.176                  0.6171448       -104.0535
2.18                   0.6105898       -104.9582
2.184                  0.6039824       -105.8744
2.188                  0.5973249       -106.8026
2.192                  0.5906194        -107.743
2.196                  0.5838682       -108.6959
2.2                    0.5770737       -109.6618
2.204                  0.5702385        -110.641
2.208                  0.5633651        -111.634
2.212                  0.5564563        -112.641
2.216                  0.5495149       -113.6627
2.22                   0.5425437       -114.6994
2.224                  0.5355461       -115.7516
2.228                  0.5285251       -116.8199
2.232                  0.5214838       -117.9047
2.236                  0.5144259       -119.0068
2.24                    0.507355       -120.1265
2.244                  0.5002747       -121.2646
2.248                  0.4931889       -122.4217
2.252                  0.4861016       -123.5985
2.256                  0.4790169       -124.7957
2.26                   0.4719393        -126.014
2.264                  0.4648731       -127.2542
2.268                  0.4578231       -128.5171
2.272                  0.4507942       -129.8035
2.276                  0.4437915       -131.1144
2.28                     0.43682       -132.4504
2.284                  0.4298854       -133.8127
2.288                  0.4229933       -135.2021
2.292                  0.4161495       -136.6197
2.296                  0.4093603       -138.0664
2.3                    0.4026318       -139.5432
2.304                  0.3959709       -141.0512
2.308                  0.3893843       -142.5915
2.312                   0.382879       -144.1651
2.316                  0.3764625        -145.773
2.32                   0.3701423       -147.4163
2.324                  0.3639263        -149.096
2.328                  0.3578226       -150.8132
2.332                  0.3518396       -152.5687
2.336                  0.3459858       -154.3635
2.34                   0.3402701       -156.1983
2.344                  0.3347016       -158.0739
2.348                  0.3292894       -159.9909
2.352                   0.324043       -161.9497