! TOUCHSTONE file generated by CST MICROWAVE STUDIO
! Date and time: Sat May 14 10:02:59 2022
! Project name: AppElm_antenne_dipole_Alumina.cst
! Parameters = {L=33; e=0.035; f=2.45e+09; h=1.6; i=0.84; l1=2; lambda=122.449; ls=30; wl=1.7; ws=80}
! Header version: 2018
! Port assignment regex: !\s*Touchstone port\s*([0-9]+)\s*=\s*(CST MWS port|CST DS port)\s*([0-9]+|Zmin|Zmax)\s*\(\"(.*)\"\)(\s*mode\s*([0-9]+))?.*
! Touchstone port assignment:
! Touchstone port 1 = CST MWS port 1 ("")
# GHz S MA R 50
0                              1              -0
0.004                  0.9999985     -0.07016841
0.008                  0.9999945      -0.1403299
0.012                  0.9999879      -0.2104774
0.016                  0.9999787       -0.280604
0.02                   0.9999669      -0.3507028
0.024                  0.9999525      -0.4207672
0.028                  0.9999354      -0.4907904
0.032                   0.999916      -0.5607657
0.036                  0.9998941      -0.6306869
0.04                   0.9998698      -0.7005476
0.044                  0.9998432      -0.7703415
0.048                  0.9998143      -0.8400631
0.052                  0.9997833      -0.9097063
0.056                  0.9997502      -0.9792656
0.06                   0.9997151       -1.048736
0.064                  0.9996779       -1.118112
0.068                  0.9996392        -1.18739
0.072                  0.9995986       -1.256565
0.076                  0.9995562       -1.325632
0.08                   0.9995124       -1.394588
0.084                  0.9994673       -1.463429
0.088                  0.9994207       -1.532152
0.092                  0.9993732       -1.600754
0.096                  0.9993245       -1.669234
0.1                    0.9992751       -1.737587
0.104                  0.9992246       -1.805814
0.108                  0.9991737       -1.873912
0.112                  0.9991222        -1.94188
0.116                  0.9990703       -2.009719
0.12                   0.9990181       -2.077427
0.124                  0.9989657       -2.145005
0.128                  0.9989135       -2.212452
0.132                  0.9988613       -2.279772
0.136                  0.9988095       -2.346964
0.14                    0.998758        -2.41403
0.144                  0.9987072       -2.480973
0.148                   0.998657       -2.547796
0.152                  0.9986076         -2.6145
0.156                  0.9985592       -2.681089
0.16                    0.998512       -2.747568
0.164                  0.9984658       -2.813939
0.168                   0.998421       -2.880208
0.172                  0.9983776        -2.94638
0.176                  0.9983357       -3.012459
0.18                   0.9982956        -3.07845
0.184                   0.998257       -3.144361
0.188                  0.9982206       -3.210195
0.192                   0.998186       -3.275962
0.196                  0.9981535       -3.341666
0.2                    0.9981232       -3.407314
0.204                  0.9980949       -3.472914
0.208                   0.998069       -3.538474
0.212                  0.9980455          -3.604
0.216                  0.9980244       -3.669501
0.22                   0.9980058       -3.734984
0.224                  0.9979897       -3.800459
0.228                  0.9979762       -3.865933
0.232                  0.9979653       -3.931414
0.236                   0.997957       -3.996911
0.24                   0.9979514       -4.062433
0.244                  0.9979485       -4.127989
0.248                  0.9979483       -4.193586
0.252                  0.9979507       -4.259235
0.256                   0.997956       -4.324943
0.26                   0.9979637       -4.390721
0.264                  0.9979742       -4.456574
0.268                  0.9979874       -4.522514
0.272                   0.998003        -4.58855
0.276                  0.9980213       -4.654687
0.28                   0.9980421       -4.720936
0.284                  0.9980653       -4.787304
0.288                   0.998091       -4.853799
0.292                   0.998119       -4.920432
0.296                  0.9981492       -4.987206
0.3                    0.9981816       -5.054131
0.304                  0.9982161       -5.121215
0.308                  0.9982525       -5.188463
0.312                  0.9982911       -5.255883
0.316                  0.9983312       -5.323482
0.32                   0.9983731       -5.391264
0.324                  0.9984166       -5.459238
0.328                  0.9984617       -5.527406
0.332                  0.9985081       -5.595777
0.336                  0.9985555       -5.664353
0.34                   0.9986044        -5.73314
0.344                  0.9986541       -5.802141
0.348                  0.9987046       -5.871361
0.352                   0.998756       -5.940802
0.356                  0.9988079       -6.010469
0.36                   0.9988601       -6.080363
0.364                  0.9989127       -6.150486
0.368                  0.9989655       -6.220842
0.372                  0.9990182        -6.29143
0.376                  0.9990709       -6.362253
0.38                   0.9991234       -6.433309
0.384                  0.9991754       -6.504601
0.388                  0.9992268       -6.576128
0.392                  0.9992776       -6.647887
0.396                  0.9993276       -6.719881
0.4                    0.9993765       -6.792106
0.404                  0.9994245        -6.86456
0.408                  0.9994711       -6.937243
0.412                  0.9995163       -7.010151
0.416                  0.9995601       -7.083281
0.42                   0.9996024        -7.15663
0.424                  0.9996429       -7.230192
0.428                  0.9996815       -7.303969
0.432                  0.9997181       -7.377952
0.436                  0.9997529       -7.452135
0.44                   0.9997852       -7.526518
0.444                  0.9998155       -7.601093
0.448                  0.9998434       -7.675854
0.452                  0.9998687       -7.750798
0.456                  0.9998917       -7.825917
0.46                   0.9999119       -7.901204
0.464                  0.9999296       -7.976656
0.468                  0.9999447       -8.052262
0.472                  0.9999568       -8.128019
0.476                  0.9999663       -8.203919
0.48                   0.9999728       -8.279954
0.484                  0.9999765       -8.356118
0.488                  0.9999772       -8.432404
0.492                  0.9999751       -8.508805
0.496                  0.9999699       -8.585314
0.5                    0.9999619        -8.66192
0.504                  0.9999509       -8.738623
0.508                  0.9999371       -8.815407
0.512                  0.9999202       -8.892272
0.516                  0.9999005       -8.969209
0.52                    0.999878       -9.046209
0.524                  0.9998526       -9.123266
0.528                  0.9998247       -9.200372
0.532                  0.9997938       -9.277523
0.536                  0.9997603       -9.354714
0.54                   0.9997244       -9.431933
0.544                  0.9996859       -9.509178
0.548                   0.999645       -9.586441
0.552                  0.9996017       -9.663717
0.556                  0.9995562       -9.741002
0.56                   0.9995086        -9.81829
0.564                  0.9994589       -9.895575
0.568                  0.9994074       -9.972856
0.572                   0.999354       -10.05012
0.576                   0.999299       -10.12738
0.58                   0.9992423       -10.20462
0.584                  0.9991844       -10.28183
0.588                   0.999125       -10.35903
0.592                  0.9990644       -10.43619
0.596                  0.9990029       -10.51333
0.6                    0.9989406       -10.59044
0.604                  0.9988774       -10.66752
0.608                  0.9988135       -10.74457
0.612                  0.9987493       -10.82159
0.616                  0.9986848       -10.89858
0.62                   0.9986201       -10.97554
0.624                  0.9985555       -11.05247
0.628                  0.9984909       -11.12937
0.632                  0.9984268       -11.20625
0.636                   0.998363        -11.2831
0.64                      0.9983       -11.35994
0.644                  0.9982375       -11.43676
0.648                   0.998176       -11.51357
0.652                  0.9981156       -11.59036
0.656                  0.9980563       -11.66716
0.66                   0.9979983       -11.74396
0.664                  0.9979417       -11.82077
0.668                  0.9978868       -11.89759
0.672                  0.9978335       -11.97443
0.676                  0.9977821        -12.0513
0.68                   0.9977326        -12.1282
0.684                  0.9976853       -12.20515
0.688                    0.99764       -12.28214
0.692                   0.997597        -12.3592
0.696                  0.9975564       -12.43632
0.7                    0.9975182       -12.51351
0.704                  0.9974826       -12.59079
0.708                  0.9974496       -12.66817
0.712                  0.9974192       -12.74565
0.716                  0.9973915       -12.82324
0.72                   0.9973667       -12.90096
0.724                  0.9973447       -12.97881
0.728                  0.9973256        -13.0568
0.732                  0.9973093       -13.13496
0.736                   0.997296       -13.21328
0.74                   0.9972857       -13.29177
0.744                  0.9972783       -13.37045
0.748                  0.9972737       -13.44934
0.752                  0.9972722       -13.52843
0.756                  0.9972735       -13.60774
0.76                   0.9972778       -13.68729
0.764                  0.9972849       -13.76708
0.768                  0.9972948       -13.84712
0.772                  0.9973075       -13.92743
0.776                  0.9973229       -14.00801
0.78                   0.9973409       -14.08887
0.784                  0.9973614       -14.17004
0.788                  0.9973845       -14.25151
0.792                  0.9974098       -14.33329
0.796                  0.9974375        -14.4154
0.8                    0.9974674       -14.49785
0.804                  0.9974993       -14.58063
0.808                  0.9975332       -14.66378
0.812                  0.9975688       -14.74728
0.816                  0.9976063       -14.83115
0.82                   0.9976452        -14.9154
0.824                  0.9976855       -15.00004
0.828                  0.9977271       -15.08507
0.832                  0.9977698        -15.1705
0.836                  0.9978136       -15.25633
0.84                   0.9978581       -15.34257
0.844                  0.9979032       -15.42923
0.848                  0.9979487       -15.51631
0.852                  0.9979946       -15.60382
0.856                  0.9980407       -15.69176
0.86                   0.9980866       -15.78013
0.864                  0.9981322       -15.86894
0.868                  0.9981777       -15.95819
0.872                  0.9982223       -16.04788
0.876                  0.9982662       -16.13801
0.88                   0.9983092       -16.22859
0.884                  0.9983512       -16.31962
0.888                  0.9983917       -16.41109
0.892                  0.9984308         -16.503
0.896                  0.9984683       -16.59537
0.9                     0.998504       -16.68818
0.904                  0.9985376       -16.78142
0.908                  0.9985691       -16.87511
0.912                  0.9985983       -16.96924
0.916                   0.998625        -17.0638
0.92                   0.9986491        -17.1588
0.924                  0.9986704       -17.25422
0.928                  0.9986888       -17.35007
0.932                  0.9987041       -17.44633
0.936                  0.9987163       -17.54301
0.94                   0.9987251        -17.6401
0.944                  0.9987304       -17.73759
0.948                  0.9987322       -17.83548
0.952                  0.9987305       -17.93376
0.956                  0.9987249       -18.03243
0.96                   0.9987155       -18.13148
0.964                  0.9987021        -18.2309
0.968                  0.9986847       -18.33068
0.972                  0.9986633       -18.43082
0.976                  0.9986378       -18.53131
0.98                   0.9986081       -18.63215
0.984                  0.9985741       -18.73332
0.988                   0.998536       -18.83481
0.992                  0.9984936       -18.93663
0.996                  0.9984469       -19.03875
1                      0.9983959       -19.14118
1.004                  0.9983407       -19.24391
1.008                  0.9982811       -19.34694
1.012                  0.9982174       -19.45024
1.016                  0.9981495       -19.55381
1.02                   0.9980773       -19.65763
1.024                  0.9980011       -19.76172
1.028                  0.9979209       -19.86606
1.032                  0.9978366       -19.97067
1.036                  0.9977484        -20.0755
1.04                   0.9976564       -20.18055
1.044                  0.9975607       -20.28587
1.048                  0.9974615       -20.39136
1.052                  0.9973587       -20.49706
1.056                  0.9972524       -20.60304
1.06                   0.9971429       -20.70918
1.064                  0.9970305       -20.81548
1.068                  0.9969149       -20.92206
1.072                  0.9967965       -21.02877
1.076                  0.9966753       -21.13571
1.08                   0.9965517       -21.24283
1.084                  0.9964257       -21.35012
1.088                  0.9962975       -21.45766
1.092                  0.9961672        -21.5653
1.096                  0.9960352       -21.67319
1.1                    0.9959013       -21.78125
1.104                   0.995766       -21.88949
1.108                  0.9956294       -21.99792
1.112                  0.9954917       -22.10655
1.116                  0.9953529       -22.21537
1.12                   0.9952135       -22.32441
1.124                  0.9950735       -22.43364
1.128                   0.994933       -22.54305
1.132                  0.9947924        -22.6527
1.136                  0.9946517       -22.76256
1.14                   0.9945113       -22.87265
1.144                  0.9943711       -22.98298
1.148                  0.9942315       -23.09355
1.152                  0.9940927       -23.20436
1.156                  0.9939547       -23.31544
1.16                   0.9938179       -23.42679
1.164                  0.9936821       -23.53842
1.168                  0.9935478       -23.65034
1.172                  0.9934149       -23.76256
1.176                  0.9932838        -23.8751
1.18                   0.9931544       -23.98797
1.184                  0.9930269       -24.10118
1.188                  0.9929015       -24.21475
1.192                  0.9927782       -24.32868
1.196                  0.9926573       -24.44301
1.2                    0.9925388       -24.55773
1.204                  0.9924226       -24.67287
1.208                  0.9923091       -24.78845
1.212                  0.9921981       -24.90447
1.216                  0.9920898       -25.02096
1.22                   0.9919842       -25.13794
1.224                  0.9918813       -25.25541
1.228                  0.9917811       -25.37341
1.232                  0.9916838       -25.49194
1.236                  0.9915893       -25.61103
1.24                   0.9914974        -25.7307
1.244                  0.9914084       -25.85095
1.248                  0.9913223       -25.97182
1.252                  0.9912385       -26.09332
1.256                  0.9911575       -26.21547
1.26                    0.991079        -26.3383
1.264                   0.991003        -26.4618
1.268                  0.9909294       -26.58602
1.272                  0.9908578       -26.71096
1.276                  0.9907887       -26.83664
1.28                   0.9907214       -26.96309
1.284                   0.990656       -27.09033
1.288                  0.9905924       -27.21836
1.292                  0.9905301       -27.34721
1.296                  0.9904695       -27.47689
1.3                    0.9904098       -27.60743
1.304                  0.9903511       -27.73884
1.308                  0.9902934       -27.87113
1.312                  0.9902361       -28.00433
1.316                  0.9901792       -28.13845
1.32                   0.9901224        -28.2735
1.324                  0.9900654       -28.40951
1.328                  0.9900081       -28.54647
1.332                    0.98995       -28.68442
1.336                  0.9898911       -28.82336
1.34                    0.989831        -28.9633
1.344                  0.9897694       -29.10426
1.348                   0.989706       -29.24625
1.352                  0.9896406       -29.38928
1.356                  0.9895728       -29.53336
1.36                   0.9895023       -29.67851
1.364                  0.9894289       -29.82473
1.368                  0.9893523       -29.97202
1.372                  0.9892721        -30.1204
1.376                   0.989188       -30.26989
1.38                   0.9890999       -30.42047
1.384                  0.9890071       -30.57217
1.388                  0.9889096       -30.72497
1.392                  0.9888069        -30.8789
1.396                  0.9886989       -31.03396
1.4                    0.9885851       -31.19014
1.404                  0.9884653       -31.34746
1.408                  0.9883392        -31.5059
1.412                  0.9882064       -31.66549
1.416                  0.9880667       -31.82621
1.42                   0.9879197       -31.98808
1.424                  0.9877654       -32.15108
1.428                  0.9876033       -32.31522
1.432                  0.9874331        -32.4805
1.436                  0.9872548       -32.64692
1.44                   0.9870678       -32.81448
1.444                  0.9868721       -32.98317
1.448                  0.9866674       -33.15299
1.452                  0.9864534       -33.32395
1.456                    0.98623       -33.49603
1.46                   0.9859971       -33.66924
1.464                  0.9857541       -33.84356
1.468                  0.9855012       -34.01901
1.472                  0.9852381       -34.19556
1.476                  0.9849647       -34.37322
1.48                   0.9846807       -34.55199
1.484                   0.984386       -34.73186
1.488                  0.9840807       -34.91282
1.492                  0.9837643       -35.09488
1.496                  0.9834369       -35.27803
1.5                    0.9830986       -35.46226
1.504                  0.9827491       -35.64756
1.508                  0.9823883       -35.83394
1.512                  0.9820161        -36.0214
1.516                  0.9816328       -36.20993
1.52                   0.9812382       -36.39951
1.524                  0.9808321       -36.59016
1.528                  0.9804147       -36.78187
1.532                   0.979986       -36.97463
1.536                   0.979546       -37.16846
1.54                   0.9790946       -37.36334
1.544                  0.9786321       -37.55928
1.548                  0.9781583       -37.75627
1.552                  0.9776734       -37.95431
1.556                  0.9771775       -38.15341
1.56                   0.9766706       -38.35357
1.564                  0.9761529        -38.5548
1.568                  0.9756244        -38.7571
1.572                  0.9750853       -38.96046
1.576                  0.9745356        -39.1649
1.58                   0.9739756       -39.37042
1.584                  0.9734051       -39.57705
1.588                  0.9728248       -39.78475
1.592                  0.9722343       -39.99358
1.596                  0.9716341       -40.20353
1.6                    0.9710241       -40.41459
1.604                  0.9704046       -40.62682
1.608                  0.9697757       -40.84019
1.612                  0.9691376       -41.05474
1.616                  0.9684905       -41.27049
1.62                   0.9678345       -41.48742
1.624                  0.9671697        -41.7056
1.628                  0.9664962       -41.92502
1.632                  0.9658143        -42.1457
1.636                  0.9651241       -42.36767
1.64                   0.9644257       -42.59096
1.644                  0.9637193       -42.81559
1.648                   0.963005       -43.04158
1.652                  0.9622829       -43.26896
1.656                  0.9615531       -43.49777
1.66                   0.9608157       -43.72803
1.664                  0.9600707       -43.95978
1.668                  0.9593183       -44.19304
1.672                  0.9585586       -44.42785
1.676                  0.9577914       -44.66426
1.68                   0.9570172       -44.90227
1.684                  0.9562356       -45.14196
1.688                  0.9554465       -45.38335
1.692                  0.9546502       -45.62649
1.696                  0.9538468       -45.87141
1.7                    0.9530359       -46.11814
1.704                  0.9522174       -46.36676
1.708                  0.9513915       -46.61729
1.712                  0.9505579       -46.86979
1.716                  0.9497164        -47.1243
1.72                   0.9488669       -47.38086
1.724                  0.9480094       -47.63954
1.728                  0.9471434       -47.90037
1.732                  0.9462689       -48.16341
1.736                  0.9453856       -48.42871
1.74                   0.9444931       -48.69632
1.744                  0.9435911        -48.9663
1.748                  0.9426794       -49.23871
1.752                  0.9417576       -49.51358
1.756                   0.940825       -49.79099
1.76                   0.9398816       -50.07099
1.764                  0.9389269       -50.35362
1.768                  0.9379602       -50.63896
1.772                  0.9369812       -50.92706
1.776                  0.9359891       -51.21798
1.78                   0.9349838       -51.51176
1.784                  0.9339644       -51.80847
1.788                  0.9329303       -52.10817
1.792                  0.9318809       -52.41092
1.796                  0.9308156       -52.71677
1.8                    0.9297336       -53.02578
1.804                  0.9286344       -53.33802
1.808                   0.927517       -53.65353
1.812                  0.9263806       -53.97239
1.816                  0.9252247       -54.29463
1.82                   0.9240481       -54.62033
1.824                  0.9228505       -54.94954
1.828                  0.9216305       -55.28232
1.832                  0.9203874       -55.61872
1.836                  0.9191204       -55.95879
1.84                   0.9178284       -56.30261
1.844                  0.9165107        -56.6502
1.848                   0.915166       -57.00165
1.852                  0.9137935       -57.35699
1.856                  0.9123922       -57.71628
1.86                   0.9109611       -58.07959
1.864                  0.9094991       -58.44695
1.868                  0.9080051       -58.81842
1.872                  0.9064782       -59.19404
1.876                  0.9049172       -59.57388
1.88                    0.903321       -59.95798
1.884                  0.9016886       -60.34639
1.888                  0.9000188       -60.73914
1.892                  0.8983106       -61.13632
1.896                  0.8965628       -61.53793
1.9                    0.8947743       -61.94406
1.904                  0.8929442       -62.35472
1.908                  0.8910709       -62.76997
1.912                  0.8891537       -63.18985
1.916                  0.8871913        -63.6144
1.92                   0.8851826       -64.04367
1.924                  0.8831265       -64.47771
1.928                  0.8810218       -64.91654
1.932                  0.8788675       -65.36022
1.936                  0.8766625       -65.80879
1.94                   0.8744057       -66.26227
1.944                  0.8720961       -66.72071
1.948                  0.8697323       -67.18418
1.952                  0.8673138       -67.65266
1.956                  0.8648392       -68.12623
1.96                   0.8623075       -68.60491
1.964                  0.8597177       -69.08876
1.968                  0.8570689       -69.57781
1.972                  0.8543601       -70.07207
1.976                  0.8515905       -70.57159
1.98                   0.8487589       -71.07643
1.984                  0.8458647       -71.58659
1.988                  0.8429068       -72.10216
1.992                  0.8398845       -72.62313
1.996                   0.836797       -73.14956
2                      0.8336432       -73.68149
2.004                  0.8304228       -74.21895
2.008                  0.8271349       -74.76198
2.012                  0.8237788       -75.31062
2.016                  0.8203539       -75.86491
2.02                   0.8168595       -76.42489
2.024                   0.813295       -76.99061
2.028                  0.8096599       -77.56213
2.032                  0.8059538       -78.13945
2.036                  0.8021761       -78.72267
2.04                   0.7983264       -79.31178
2.044                  0.7944043       -79.90686
2.048                  0.7904096       -80.50797
2.052                  0.7863419       -81.11513
2.056                  0.7822009       -81.72843
2.06                   0.7779864       -82.34789
2.064                  0.7736982       -82.97361
2.068                  0.7693365       -83.60561
2.072                  0.7649009       -84.24397
2.076                  0.7603915       -84.88876
2.08                   0.7558084       -85.54004
2.084                  0.7511515       -86.19788
2.088                   0.746421       -86.86237
2.092                  0.7416173       -87.53357
2.096                  0.7367404       -88.21157
2.1                    0.7317907       -88.89645
2.104                  0.7267685       -89.58832
2.108                  0.7216742       -90.28724
2.112                  0.7165084       -90.99332
2.116                  0.7112715       -91.70666
2.12                    0.705964       -92.42739
2.124                  0.7005868       -93.15559
2.128                  0.6951404       -93.89142
2.132                  0.6896255       -94.63496
2.136                  0.6840431       -95.38636
2.14                    0.678394       -96.14577
2.144                  0.6726791       -96.91332
2.148                  0.6668996       -97.68914
2.152                  0.6610563       -98.47344
2.156                  0.6551504       -99.26634
2.16                   0.6491832        -100.068
2.164                   0.643156       -100.8787
2.168                  0.6370699       -101.6985
2.172                  0.6309268       -102.5278
2.176                  0.6247277       -103.3666
2.18                   0.6184743       -104.2152
2.184                  0.6121683       -105.0738
2.188                  0.6058113       -105.9428
2.192                  0.5994052       -106.8223
2.196                  0.5929518       -107.7126
2.2                    0.5864529       -108.6141
2.204                  0.5799108        -109.527
2.208                  0.5733274       -110.4516
2.212                  0.5667048       -111.3882
2.216                  0.5600456       -112.3373
2.22                    0.553352       -113.2992
2.224                  0.5466262       -114.2742
2.228                  0.5398712       -115.2629
2.232                  0.5330893       -116.2655
2.236                  0.5262834       -117.2826
2.24                   0.5194564       -118.3145
2.244                  0.5126111       -119.3619
2.248                  0.5057507       -120.4252
2.252                  0.4988784        -121.505
2.256                  0.4919975       -122.6018
2.26                   0.4851114       -123.7162
2.264                  0.4782236       -124.8488
2.268                  0.4713379       -126.0002
2.272                  0.4644581       -127.1713
2.276                  0.4575881       -128.3625
2.28                   0.4507321       -129.5748
2.284                  0.4438944       -130.8088
2.288                  0.4370794       -132.0653
2.292                  0.4302917       -133.3452
2.296                  0.4235362       -134.6492
2.3                    0.4168177       -135.9784
2.304                  0.4101414       -137.3335
2.308                  0.4035127       -138.7156
2.312                  0.3969371       -140.1255
2.316                  0.3904205       -141.5642
2.32                   0.3839686       -143.0328
2.324                  0.3775878       -144.5323
2.328                  0.3712843       -146.0636
2.332                   0.365065       -147.6277
2.336                  0.3589366       -149.2258
2.34                   0.3529061       -150.8587
2.344                  0.3469811       -152.5274
2.348                  0.3411687        -154.233
2.352                  0.3354771       -155.9761