! TOUCHSTONE file generated by CST MICROWAVE STUDIO
! Date and time: Sat May 14 10:03:00 2022
! Project name: AppElm_antenne_dipole_Alumina.cst
! Parameters = {L=33; e=0.035; f=2.45e+09; h=1.6; i=0.88; l1=2; lambda=122.449; ls=30; wl=1.7; ws=80}
! Header version: 2018
! Port assignment regex: !\s*Touchstone port\s*([0-9]+)\s*=\s*(CST MWS port|CST DS port)\s*([0-9]+|Zmin|Zmax)\s*\(\"(.*)\"\)(\s*mode\s*([0-9]+))?.*
! Touchstone port assignment:
! Touchstone port 1 = CST MWS port 1 ("")
# GHz S MA R 50
0                              1              -0
0.004                  0.9999986     -0.07066517
0.008                  0.9999949      -0.1413236
0.012                  0.9999884      -0.2119687
0.016                  0.9999795      -0.2825938
0.02                   0.9999681      -0.3531922
0.024                  0.9999542      -0.4237574
0.028                  0.9999378      -0.4942831
0.032                   0.999919       -0.564763
0.036                  0.9998979      -0.6351908
0.04                   0.9998744      -0.7055605
0.044                  0.9998487      -0.7758663
0.048                  0.9998208      -0.8461023
0.052                  0.9997909      -0.9162633
0.056                   0.999759      -0.9863439
0.06                    0.999725       -1.056339
0.064                  0.9996893       -1.126244
0.068                  0.9996518       -1.196054
0.072                  0.9996125       -1.265765
0.076                  0.9995717       -1.335373
0.08                   0.9995294       -1.404875
0.084                  0.9994858       -1.474266
0.088                  0.9994409       -1.543544
0.092                   0.999395       -1.612706
0.096                  0.9993481       -1.681751
0.1                    0.9993001       -1.750675
0.104                  0.9992516       -1.819476
0.108                  0.9992022       -1.888155
0.112                  0.9991525        -1.95671
0.116                  0.9991024        -2.02514
0.12                    0.999052       -2.093444
0.124                  0.9990015       -2.161625
0.128                  0.9989509       -2.229681
0.132                  0.9989006       -2.297613
0.136                  0.9988505       -2.365424
0.14                   0.9988008       -2.433114
0.144                  0.9987517       -2.500686
0.148                  0.9987032       -2.568143
0.152                  0.9986555       -2.635487
0.156                  0.9986087       -2.702722
0.16                   0.9985628        -2.76985
0.164                  0.9985182       -2.836876
0.168                   0.998475       -2.903805
0.172                  0.9984329        -2.97064
0.176                  0.9983925       -3.037387
0.18                   0.9983537       -3.104051
0.184                  0.9983164       -3.170639
0.188                  0.9982811       -3.237154
0.192                  0.9982475       -3.303604
0.196                  0.9982161       -3.369995
0.2                    0.9981866       -3.436334
0.204                  0.9981592       -3.502628
0.208                  0.9981342       -3.568884
0.212                  0.9981114       -3.635109
0.216                  0.9980908       -3.701311
0.22                   0.9980727       -3.767497
0.224                  0.9980571       -3.833677
0.228                  0.9980439       -3.899857
0.232                  0.9980332       -3.966044
0.236                  0.9980251        -4.03225
0.24                   0.9980195        -4.09848
0.244                  0.9980166       -4.164745
0.248                  0.9980161       -4.231052
0.252                  0.9980183       -4.297409
0.256                  0.9980232       -4.363826
0.26                   0.9980306       -4.430309
0.264                  0.9980406       -4.496869
0.268                  0.9980531       -4.563515
0.272                  0.9980681       -4.630252
0.276                  0.9980855        -4.69709
0.28                   0.9981055       -4.764037
0.284                  0.9981276       -4.831103
0.288                  0.9981522       -4.898293
0.292                  0.9981791       -4.965614
0.296                  0.9982081       -5.033077
0.3                    0.9982393       -5.100687
0.304                  0.9982724        -5.16845
0.308                  0.9983074       -5.236376
0.312                  0.9983443       -5.304469
0.316                   0.998383       -5.372737
0.32                   0.9984234       -5.441183
0.324                  0.9984653       -5.509816
0.328                  0.9985086        -5.57864
0.332                  0.9985533        -5.64766
0.336                  0.9985991       -5.716882
0.34                    0.998646       -5.786309
0.344                  0.9986938       -5.855946
0.348                  0.9987425       -5.925796
0.352                   0.998792       -5.995862
0.356                   0.998842       -6.066148
0.36                   0.9988924       -6.136656
0.364                  0.9989432       -6.207389
0.368                   0.998994       -6.278348
0.372                  0.9990448       -6.349536
0.376                  0.9990957        -6.42095
0.38                   0.9991463       -6.492595
0.384                  0.9991964       -6.564469
0.388                  0.9992461       -6.636573
0.392                  0.9992951       -6.708905
0.396                  0.9993433       -6.781467
0.4                    0.9993906       -6.854254
0.404                   0.999437       -6.927267
0.408                  0.9994819       -7.000503
0.412                  0.9995258        -7.07396
0.416                  0.9995679       -7.147636
0.42                   0.9996088       -7.221525
0.424                  0.9996479       -7.295626
0.428                  0.9996853       -7.369936
0.432                  0.9997208       -7.444449
0.436                  0.9997543       -7.519161
0.44                   0.9997857       -7.594068
0.444                   0.999815       -7.669164
0.448                  0.9998421       -7.744445
0.452                  0.9998667       -7.819905
0.456                  0.9998889       -7.895539
0.46                   0.9999086       -7.971341
0.464                  0.9999259       -8.047304
0.468                  0.9999404       -8.123423
0.472                  0.9999523        -8.19969
0.476                  0.9999615       -8.276101
0.48                   0.9999681       -8.352646
0.484                  0.9999717        -8.42932
0.488                  0.9999725       -8.506119
0.492                  0.9999705        -8.58303
0.496                  0.9999658       -8.660052
0.5                    0.9999582       -8.737173
0.504                  0.9999476        -8.81439
0.508                  0.9999344       -8.891696
0.512                  0.9999184        -8.96908
0.516                  0.9998995        -9.04654
0.52                   0.9998779       -9.124066
0.524                  0.9998535       -9.201653
0.528                  0.9998266       -9.279293
0.532                  0.9997968       -9.356981
0.536                  0.9997647       -9.434711
0.54                   0.9997299       -9.512476
0.544                   0.999693       -9.590268
0.548                  0.9996536       -9.668086
0.552                  0.9996118       -9.745923
0.556                  0.9995679       -9.823774
0.56                    0.999522        -9.90163
0.564                  0.9994741       -9.979492
0.568                  0.9994243       -10.05735
0.572                  0.9993727       -10.13521
0.576                  0.9993196       -10.21306
0.58                   0.9992648       -10.29089
0.584                  0.9992087       -10.36872
0.588                  0.9991513       -10.44652
0.592                  0.9990927       -10.52431
0.596                  0.9990333       -10.60207
0.6                    0.9989729       -10.67981
0.604                  0.9989116       -10.75753
0.608                  0.9988498       -10.83523
0.612                  0.9987877        -10.9129
0.616                  0.9987251       -10.99055
0.62                   0.9986624       -11.06817
0.624                  0.9985997       -11.14577
0.628                  0.9985371       -11.22336
0.632                  0.9984748       -11.30092
0.636                  0.9984129       -11.37847
0.64                   0.9983515         -11.456
0.644                  0.9982909       -11.53352
0.648                   0.998231       -11.61104
0.652                  0.9981721       -11.68856
0.656                  0.9981145       -11.76608
0.66                   0.9980579       -11.84361
0.664                  0.9980028       -11.92115
0.668                  0.9979491       -11.99871
0.672                  0.9978971       -12.07629
0.676                  0.9978468       -12.15391
0.68                   0.9977984       -12.23156
0.684                  0.9977519       -12.30927
0.688                  0.9977074       -12.38702
0.692                  0.9976653       -12.46484
0.696                  0.9976253       -12.54273
0.7                    0.9975877       -12.62069
0.704                  0.9975524       -12.69875
0.708                  0.9975197        -12.7769
0.712                  0.9974896       -12.85516
0.716                  0.9974619       -12.93353
0.72                   0.9974371       -13.01203
0.724                  0.9974149       -13.09066
0.728                  0.9973954       -13.16944
0.732                  0.9973788       -13.24838
0.736                  0.9973651       -13.32748
0.74                    0.997354       -13.40676
0.744                  0.9973458       -13.48622
0.748                  0.9973405       -13.56588
0.752                  0.9973379       -13.64576
0.756                  0.9973381       -13.72585
0.76                   0.9973412       -13.80617
0.764                  0.9973469       -13.88673
0.768                  0.9973555       -13.96754
0.772                  0.9973666       -14.04862
0.776                  0.9973803       -14.12996
0.78                   0.9973965       -14.21159
0.784                  0.9974152       -14.29351
0.788                  0.9974363       -14.37573
0.792                  0.9974597       -14.45826
0.796                  0.9974853       -14.54111
0.8                    0.9975129        -14.6243
0.804                  0.9975427       -14.70782
0.808                  0.9975742       -14.79169
0.812                  0.9976075       -14.87591
0.816                  0.9976425        -14.9605
0.82                   0.9976789       -15.04546
0.824                  0.9977167        -15.1308
0.828                  0.9977557       -15.21653
0.832                  0.9977959       -15.30264
0.836                  0.9978369       -15.38916
0.84                   0.9978787       -15.47608
0.844                  0.9979212       -15.56341
0.848                  0.9979641       -15.65116
0.852                  0.9980073       -15.73932
0.856                  0.9980506       -15.82792
0.86                   0.9980939       -15.91693
0.864                   0.998137       -16.00638
0.868                  0.9981797       -16.09626
0.872                  0.9982218       -16.18658
0.876                  0.9982631       -16.27733
0.88                   0.9983038       -16.36852
0.884                  0.9983432       -16.46016
0.888                  0.9983813       -16.55223
0.892                  0.9984181       -16.64474
0.896                  0.9984533       -16.73769
0.9                    0.9984868       -16.83108
0.904                  0.9985183       -16.92491
0.908                  0.9985478       -17.01917
0.912                   0.998575       -17.11387
0.916                  0.9985999         -17.209
0.92                   0.9986222       -17.30455
0.924                  0.9986419       -17.40053
0.928                  0.9986588       -17.49693
0.932                  0.9986726       -17.59375
0.936                  0.9986834       -17.69098
0.94                   0.9986911       -17.78861
0.944                  0.9986954       -17.88664
0.948                  0.9986963       -17.98508
0.952                  0.9986936        -18.0839
0.956                  0.9986874       -18.18311
0.96                   0.9986773       -18.28269
0.964                  0.9986636       -18.38265
0.968                   0.998646       -18.48297
0.972                  0.9986244       -18.58365
0.976                  0.9985989       -18.68468
0.98                   0.9985692       -18.78605
0.984                  0.9985355       -18.88777
0.988                  0.9984978       -18.98981
0.992                  0.9984558       -19.09217
0.996                  0.9984098       -19.19485
1                      0.9983595       -19.29783
1.004                  0.9983051       -19.40112
1.008                  0.9982467       -19.50471
1.012                   0.998184       -19.60856
1.016                  0.9981173       -19.71271
1.02                   0.9980465        -19.8171
1.024                  0.9979717       -19.92179
1.028                  0.9978931       -20.02673
1.032                  0.9978104       -20.13192
1.036                  0.9977239       -20.23738
1.04                   0.9976338       -20.34303
1.044                  0.9975401       -20.44895
1.048                  0.9974427       -20.55509
1.052                   0.997342       -20.66145
1.056                   0.997238         -20.768
1.06                   0.9971307        -20.8748
1.064                  0.9970202       -20.98181
1.068                  0.9969069       -21.08902
1.072                  0.9967909       -21.19641
1.076                  0.9966721       -21.30406
1.08                   0.9965508       -21.41187
1.084                  0.9964272       -21.51987
1.088                  0.9963013       -21.62808
1.092                  0.9961734       -21.73649
1.096                  0.9960436       -21.84507
1.1                    0.9959121       -21.95386
1.104                  0.9957791       -22.06286
1.108                  0.9956448       -22.17207
1.112                  0.9955093       -22.28146
1.116                  0.9953727       -22.39104
1.12                   0.9952353       -22.50085
1.124                  0.9950974       -22.61089
1.128                  0.9949588       -22.72112
1.132                    0.99482       -22.83158
1.136                  0.9946812       -22.94227
1.14                   0.9945424       -23.05319
1.144                  0.9944039       -23.16436
1.148                  0.9942657       -23.27577
1.152                  0.9941283       -23.38744
1.156                  0.9939914       -23.49938
1.16                   0.9938555        -23.6116
1.164                  0.9937208        -23.7241
1.168                  0.9935871       -23.83691
1.172                  0.9934548       -23.95001
1.176                  0.9933242       -24.06345
1.18                    0.993195       -24.17721
1.184                  0.9930676       -24.29132
1.188                  0.9929423        -24.4058
1.192                  0.9928188       -24.52064
1.196                  0.9926974       -24.63587
1.2                    0.9925781       -24.75151
1.204                  0.9924613       -24.86757
1.208                  0.9923467       -24.98406
1.212                  0.9922346         -25.101
1.216                  0.9921249        -25.2184
1.22                   0.9920178        -25.3363
1.224                  0.9919131       -25.45469
1.228                   0.991811       -25.57359
1.232                  0.9917116       -25.69304
1.236                  0.9916148       -25.81304
1.24                   0.9915205       -25.93361
1.244                  0.9914288       -26.05477
1.248                  0.9913396       -26.17654
1.252                  0.9912528       -26.29894
1.256                  0.9911685       -26.42198
1.26                   0.9910868       -26.54568
1.264                  0.9910071       -26.67007
1.268                  0.9909296       -26.79515
1.272                  0.9908544       -26.92095
1.276                  0.9907811       -27.04749
1.28                   0.9907096       -27.17479
1.284                  0.9906399       -27.30286
1.288                  0.9905717       -27.43172
1.292                  0.9905048       -27.56139
1.296                  0.9904394       -27.69188
1.3                    0.9903749       -27.82322
1.304                  0.9903113       -27.95541
1.308                  0.9902486       -28.08848
1.312                  0.9901862       -28.22245
1.316                   0.990124       -28.35732
1.32                   0.9900619       -28.49311
1.324                  0.9899995       -28.62985
1.328                  0.9899367       -28.76753
1.332                  0.9898733       -28.90618
1.336                  0.9898089       -29.04581
1.34                   0.9897433       -29.18644
1.344                  0.9896762       -29.32806
1.348                  0.9896075        -29.4707
1.352                  0.9895365       -29.61438
1.356                  0.9894633       -29.75909
1.36                   0.9893873       -29.90486
1.364                  0.9893088       -30.05167
1.368                  0.9892268       -30.19956
1.372                  0.9891413       -30.34852
1.376                  0.9890521       -30.49856
1.38                   0.9889587        -30.6497
1.384                   0.988861       -30.80194
1.388                  0.9887585       -30.95527
1.392                  0.9886511       -31.10972
1.396                  0.9885383       -31.26528
1.4                    0.9884201       -31.42195
1.404                  0.9882958       -31.57975
1.408                  0.9881654       -31.73868
1.412                  0.9880286       -31.89873
1.416                   0.987885       -32.05991
1.42                   0.9877343       -32.22222
1.424                  0.9875764       -32.38565
1.428                  0.9874108       -32.55023
1.432                  0.9872375       -32.71593
1.436                  0.9870561       -32.88277
1.44                   0.9868663       -33.05073
1.444                  0.9866679       -33.21983
1.448                  0.9864609       -33.39005
1.452                  0.9862447       -33.56139
1.456                  0.9860193       -33.73386
1.46                   0.9857845       -33.90746
1.464                    0.98554       -34.08216
1.468                  0.9852857       -34.25798
1.472                  0.9850215       -34.43491
1.476                  0.9847471       -34.61295
1.48                   0.9844624       -34.79209
1.484                  0.9841672       -34.97234
1.488                  0.9838615       -35.15368
1.492                  0.9835451       -35.33612
1.496                  0.9832178       -35.51964
1.5                    0.9828798       -35.70425
1.504                  0.9825308       -35.88993
1.508                  0.9821707        -36.0767
1.512                  0.9817997       -36.26454
1.516                  0.9814174       -36.45346
1.52                    0.981024       -36.64344
1.524                  0.9806192        -36.8345
1.528                  0.9802035       -37.02662
1.532                  0.9797765        -37.2198
1.536                  0.9793382       -37.41405
1.54                    0.978889       -37.60935
1.544                  0.9784284       -37.80573
1.548                  0.9779569       -38.00316
1.552                  0.9774743       -38.20167
1.556                  0.9769808       -38.40123
1.56                   0.9764764       -38.60186
1.564                  0.9759611       -38.80357
1.568                  0.9754353       -39.00634
1.572                  0.9748989        -39.2102
1.576                  0.9743518       -39.41515
1.58                   0.9737944       -39.62118
1.584                  0.9732267       -39.82832
1.588                   0.972649       -40.03657
1.592                   0.972061       -40.24594
1.596                  0.9714634       -40.45643
1.6                    0.9708559       -40.66806
1.604                  0.9702389       -40.88085
1.608                  0.9696123        -41.0948
1.612                  0.9689765       -41.30993
1.616                  0.9683315       -41.52626
1.62                   0.9676773        -41.7438
1.624                  0.9670144       -41.96257
1.628                  0.9663426        -42.1826
1.632                  0.9656623        -42.4039
1.636                  0.9649735       -42.62648
1.64                   0.9642762        -42.8504
1.644                  0.9635707       -43.07565
1.648                  0.9628571       -43.30227
1.652                  0.9621355       -43.53028
1.656                  0.9614057       -43.75972
1.66                   0.9606683        -43.9906
1.664                  0.9599232       -44.22298
1.668                  0.9591702       -44.45686
1.672                  0.9584096        -44.6923
1.676                  0.9576412       -44.92932
1.68                   0.9568655       -45.16795
1.684                  0.9560821       -45.40825
1.688                  0.9552911       -45.65023
1.692                  0.9544924       -45.89395
1.696                  0.9536862       -46.13944
1.7                    0.9528723       -46.38675
1.704                  0.9520504       -46.63591
1.708                  0.9512208       -46.88698
1.712                  0.9503832       -47.13999
1.716                  0.9495374       -47.39499
1.72                   0.9486834       -47.65203
1.724                  0.9478207       -47.91116
1.728                  0.9469494       -48.17243
1.732                  0.9460693       -48.43587
1.736                  0.9451799       -48.70155
1.74                   0.9442811       -48.96952
1.744                  0.9433726       -49.23983
1.748                  0.9424539       -49.51252
1.752                  0.9415249       -49.78766
1.756                   0.940585        -50.0653
1.76                   0.9396339       -50.34548
1.764                  0.9386712       -50.62826
1.768                  0.9376964       -50.91371
1.772                  0.9367089       -51.20189
1.776                  0.9357084       -51.49282
1.78                   0.9346942       -51.78659
1.784                  0.9336657       -52.08323
1.788                  0.9326226       -52.38282
1.792                  0.9315639       -52.68541
1.796                  0.9304893       -52.99105
1.8                    0.9293979       -53.29979
1.804                   0.928289        -53.6117
1.808                  0.9271621       -53.92684
1.812                  0.9260161       -54.24526
1.816                  0.9248508       -54.56701
1.82                   0.9236647       -54.89215
1.824                  0.9224576       -55.22073
1.828                  0.9212282       -55.55283
1.832                  0.9199759       -55.88848
1.836                  0.9186998       -56.22775
1.84                    0.917399       -56.57067
1.844                  0.9160724       -56.91733
1.848                  0.9147193       -57.26775
1.852                  0.9133386         -57.622
1.856                  0.9119293       -57.98014
1.86                   0.9104908        -58.3422
1.864                  0.9090215       -58.70824
1.868                  0.9075205       -59.07833
1.872                  0.9059873       -59.45249
1.876                  0.9044202       -59.83079
1.88                   0.9028187       -60.21326
1.884                  0.9011813       -60.59997
1.888                  0.8995072       -60.99095
1.892                  0.8977952       -61.38625
1.896                  0.8960443       -61.78593
1.9                    0.8942532       -62.19003
1.904                  0.8924211       -62.59858
1.908                  0.8905468       -63.01162
1.912                  0.8886292       -63.42922
1.916                  0.8866671        -63.8514
1.92                   0.8846595       -64.27823
1.924                  0.8826055       -64.70971
1.928                  0.8805038       -65.14592
1.932                  0.8783533       -65.58689
1.936                  0.8761529       -66.03264
1.94                   0.8739018       -66.48321
1.944                  0.8715988       -66.93868
1.948                  0.8692427       -67.39906
1.952                  0.8668329       -67.86436
1.956                   0.864368       -68.33466
1.96                   0.8618471       -68.80999
1.964                  0.8592692       -69.29038
1.968                  0.8566336       -69.77586
1.972                   0.853939       -70.26648
1.976                  0.8511847       -70.76227
1.98                   0.8483696       -71.26327
1.984                  0.8454932       -71.76951
1.988                  0.8425542       -72.28103
1.992                  0.8395521       -72.79786
1.996                  0.8364859       -73.32007
2                      0.8333551       -73.84766
2.004                  0.8301587       -74.38069
2.008                   0.826896       -74.91915
2.012                  0.8235664       -75.46316
2.016                  0.8201694       -76.01271
2.02                   0.8167041       -76.56784
2.024                  0.8131701        -77.1286
2.028                  0.8095669       -77.69502
2.032                  0.8058938       -78.26717
2.036                  0.8021506       -78.84509
2.04                   0.7983367        -79.4288
2.044                  0.7944517       -80.01835
2.048                  0.7904952       -80.61381
2.052                  0.7864672       -81.21522
2.056                  0.7823672       -81.82264
2.06                    0.778195        -82.4361
2.064                  0.7739504       -83.05568
2.068                  0.7696335       -83.68144
2.072                  0.7652439       -84.31339
2.076                  0.7607818       -84.95166
2.08                   0.7562472        -85.5963
2.084                  0.7516399       -86.24735
2.088                  0.7469604       -86.90489
2.092                  0.7422087       -87.56902
2.096                   0.737385       -88.23977
2.1                    0.7324896       -88.91727
2.104                  0.7275228       -89.60157
2.108                  0.7224848       -90.29279
2.112                  0.7173765         -90.991
2.116                  0.7121979       -91.69628
2.12                   0.7069498       -92.40879
2.124                  0.7016329        -93.1286
2.128                  0.6962476       -93.85581
2.132                  0.6907947       -94.59056
2.136                  0.6852749       -95.33298
2.14                   0.6796892       -96.08318
2.144                  0.6740385       -96.84133
2.148                  0.6683236       -97.60751
2.152                  0.6625456       -98.38193
2.156                  0.6567056       -99.16473
2.16                   0.6508046       -99.95607
2.164                  0.6448441       -100.7561
2.168                  0.6388252       -101.5651
2.172                  0.6327491       -102.3832
2.176                  0.6266175       -103.2105
2.18                   0.6204317       -104.0474
2.184                  0.6141932        -104.894
2.188                  0.6079038       -105.7505
2.192                   0.601565       -106.6173
2.196                  0.5951788       -107.4946
2.2                    0.5887469       -108.3826
2.204                  0.5822712       -109.2816
2.208                  0.5757538        -110.192
2.212                  0.5691968        -111.114
2.216                  0.5626021        -112.048
2.22                   0.5559724       -112.9943
2.224                  0.5493097       -113.9533
2.228                  0.5426165       -114.9253
2.232                  0.5358953       -115.9109
2.236                  0.5291488       -116.9103
2.24                   0.5223797       -117.9241
2.244                  0.5155908       -118.9527
2.248                  0.5087849       -119.9966
2.252                  0.5019653       -121.0563
2.256                   0.495135       -122.1323
2.26                   0.4882973       -123.2252
2.264                  0.4814554       -124.3356
2.268                   0.474613       -125.4641
2.272                  0.4677737       -126.6113
2.276                  0.4609411       -127.7779
2.28                   0.4541194       -128.9646
2.284                  0.4473125        -130.172
2.288                  0.4405246       -131.4011
2.292                    0.43376       -132.6526
2.296                  0.4270233       -133.9271
2.3                    0.4203193       -135.2257
2.304                  0.4136527       -136.5492
2.308                  0.4070287       -137.8984
2.312                  0.4004523       -139.2743
2.316                  0.3939293       -140.6779
2.32                   0.3874651         -142.11
2.324                  0.3810655       -143.5718
2.328                  0.3747367       -145.0641
2.332                  0.3684848       -146.5879
2.336                  0.3623165       -148.1444
2.34                   0.3562384       -149.7345
2.344                  0.3502575       -151.3591
2.348                  0.3443809       -153.0192
2.352                  0.3386159       -154.7157