! TOUCHSTONE file generated by CST MICROWAVE STUDIO
! Date and time: Sat May 14 10:03:01 2022
! Project name: AppElm_antenne_dipole_Alumina.cst
! Parameters = {L=33; e=0.035; f=2.45e+09; h=1.6; i=0.92; l1=2; lambda=122.449; ls=30; wl=1.7; ws=80}
! Header version: 2018
! Port assignment regex: !\s*Touchstone port\s*([0-9]+)\s*=\s*(CST MWS port|CST DS port)\s*([0-9]+|Zmin|Zmax)\s*\(\"(.*)\"\)(\s*mode\s*([0-9]+))?.*
! Touchstone port assignment:
! Touchstone port 1 = CST MWS port 1 ("")
# GHz S MA R 50
0                      0.9970095              -0
0.004                   0.997011     -0.06456348
0.008                  0.9970156      -0.1291359
0.012                  0.9970234       -0.193726
0.016                  0.9970344      -0.2583429
0.02                   0.9970482      -0.3229952
0.024                  0.9970652      -0.3876917
0.028                  0.9970851      -0.4524412
0.032                  0.9971079       -0.517252
0.036                  0.9971337      -0.5821327
0.04                   0.9971623      -0.6470916
0.044                  0.9971939      -0.7121368
0.048                  0.9972279      -0.7772765
0.052                  0.9972649      -0.8425182
0.056                  0.9973043      -0.9078698
0.06                   0.9973462      -0.9733386
0.064                  0.9973905       -1.038932
0.068                  0.9974371       -1.104657
0.072                  0.9974861       -1.170519
0.076                  0.9975371       -1.236527
0.08                     0.99759       -1.302685
0.084                   0.997645          -1.369
0.088                  0.9977017       -1.435478
0.092                  0.9977601       -1.502123
0.096                  0.9978202       -1.568941
0.1                    0.9978815       -1.635936
0.104                  0.9979442       -1.703113
0.108                  0.9980081       -1.770476
0.112                   0.998073       -1.838028
0.116                  0.9981389       -1.905774
0.12                   0.9982055       -1.973715
0.124                  0.9982727       -2.041855
0.128                  0.9983405       -2.110196
0.132                  0.9984085       -2.178739
0.136                  0.9984769       -2.247487
0.14                   0.9985453        -2.31644
0.144                  0.9986136         -2.3856
0.148                  0.9986817       -2.454966
0.152                  0.9987494        -2.52454
0.156                  0.9988167        -2.59432
0.16                   0.9988832       -2.664306
0.164                   0.998949       -2.734497
0.168                   0.999014       -2.804891
0.172                  0.9990778       -2.875488
0.176                  0.9991405       -2.946284
0.18                   0.9992018       -3.017278
0.184                  0.9992617       -3.088467
0.188                  0.9993199       -3.159848
0.192                  0.9993767       -3.231416
0.196                  0.9994314        -3.30317
0.2                    0.9994844       -3.375105
0.204                  0.9995352       -3.447215
0.208                  0.9995837       -3.519497
0.212                  0.9996301       -3.591947
0.216                  0.9996741       -3.664559
0.22                   0.9997158       -3.737326
0.224                  0.9997549       -3.810246
0.228                  0.9997912       -3.883309
0.232                  0.9998249       -3.956513
0.236                   0.999856       -4.029849
0.24                   0.9998841       -4.103312
0.244                  0.9999091       -4.176894
0.248                  0.9999314        -4.25059
0.252                  0.9999505       -4.324393
0.256                  0.9999667       -4.398294
0.26                   0.9999796       -4.472289
0.264                  0.9999895       -4.546368
0.268                  0.9999961       -4.620525
0.272                  0.9999996       -4.694752
0.276                          1       -4.769043
0.28                    0.999997       -4.843388
0.284                  0.9999909       -4.917783
0.288                  0.9999814       -4.992219
0.292                   0.999969       -5.066688
0.296                  0.9999532       -5.141183
0.3                    0.9999346       -5.215696
0.304                  0.9999124       -5.290222
0.308                  0.9998875       -5.364752
0.312                  0.9998595       -5.439279
0.316                  0.9998282       -5.513797
0.32                   0.9997942       -5.588299
0.324                  0.9997575       -5.662777
0.328                  0.9997179       -5.737227
0.332                  0.9996755        -5.81164
0.336                  0.9996304       -5.886012
0.34                   0.9995829       -5.960336
0.344                  0.9995328       -6.034606
0.348                  0.9994804       -6.108818
0.352                  0.9994256       -6.182966
0.356                  0.9993689       -6.257045
0.36                   0.9993099       -6.331051
0.364                  0.9992492       -6.404978
0.368                  0.9991864       -6.478824
0.372                  0.9991219       -6.552586
0.376                  0.9990561       -6.626256
0.38                   0.9989887       -6.699834
0.384                  0.9989199        -6.77332
0.388                  0.9988501       -6.846706
0.392                  0.9987792       -6.919994
0.396                  0.9987074       -6.993181
0.4                    0.9986349       -7.066265
0.404                  0.9985617       -7.139247
0.408                  0.9984881       -7.212124
0.412                  0.9984141       -7.284898
0.416                    0.99834       -7.357569
0.42                   0.9982659       -7.430135
0.424                  0.9981918         -7.5026
0.428                  0.9981181       -7.574963
0.432                  0.9980448       -7.647229
0.436                   0.997972       -7.719398
0.44                   0.9979001       -7.791472
0.444                   0.997829       -7.863455
0.448                  0.9977589        -7.93535
0.452                  0.9976899       -8.007162
0.456                  0.9976222       -8.078893
0.46                   0.9975559        -8.15055
0.464                  0.9974912       -8.222136
0.468                  0.9974283       -8.293655
0.472                  0.9973671       -8.365116
0.476                   0.997308       -8.436523
0.48                   0.9972507       -8.507883
0.484                  0.9971958       -8.579202
0.488                  0.9971432       -8.650486
0.492                   0.997093       -8.721743
0.496                  0.9970452       -8.792982
0.5                    0.9970001       -8.864209
0.504                  0.9969578       -8.935433
0.508                  0.9969181       -9.006661
0.512                  0.9968814       -9.077904
0.516                  0.9968478       -9.149168
0.52                    0.996817       -9.220465
0.524                  0.9967893       -9.291802
0.528                  0.9967648        -9.36319
0.532                  0.9967436       -9.434637
0.536                  0.9967254       -9.506153
0.54                   0.9967108       -9.577748
0.544                  0.9966992       -9.649434
0.548                   0.996691       -9.721218
0.552                  0.9966863       -9.793111
0.556                  0.9966848       -9.865125
0.56                   0.9966867       -9.937268
0.564                   0.996692       -10.00955
0.568                  0.9967007       -10.08199
0.572                  0.9967127       -10.15458
0.576                  0.9967278       -10.22735
0.58                   0.9967464       -10.30029
0.584                  0.9967681       -10.37343
0.588                  0.9967931       -10.44677
0.592                  0.9968211       -10.52032
0.596                  0.9968521        -10.5941
0.6                    0.9968862        -10.6681
0.604                  0.9969232       -10.74234
0.608                  0.9969631       -10.81683
0.612                  0.9970057       -10.89158
0.616                   0.997051        -10.9666
0.62                   0.9970988        -11.0419
0.624                  0.9971491       -11.11748
0.628                  0.9972016       -11.19335
0.632                  0.9972565       -11.26952
0.636                  0.9973134         -11.346
0.64                   0.9973723        -11.4228
0.644                  0.9974331       -11.49992
0.648                  0.9974955       -11.57736
0.652                  0.9975594       -11.65515
0.656                   0.997625       -11.73327
0.66                   0.9976916       -11.81175
0.664                  0.9977594       -11.89057
0.668                  0.9978282       -11.96975
0.672                  0.9978977        -12.0493
0.676                   0.997968       -12.12921
0.68                   0.9980386       -12.20949
0.684                  0.9981097       -12.29014
0.688                  0.9981809       -12.37117
0.692                  0.9982519       -12.45258
0.696                  0.9983228       -12.53437
0.7                    0.9983933       -12.61654
0.704                  0.9984635       -12.69909
0.708                  0.9985328       -12.78203
0.712                  0.9986012       -12.86535
0.716                  0.9986687       -12.94906
0.72                   0.9987349       -13.03315
0.724                  0.9987998       -13.11762
0.728                  0.9988631       -13.20248
0.732                  0.9989246       -13.28771
0.736                  0.9989844       -13.37333
0.74                   0.9990421       -13.45932
0.744                  0.9990977       -13.54568
0.748                  0.9991509       -13.63241
0.752                  0.9992016       -13.71951
0.756                  0.9992497       -13.80697
0.76                   0.9992952       -13.89479
0.764                  0.9993376       -13.98296
0.768                  0.9993771       -14.07148
0.772                  0.9994134       -14.16034
0.776                  0.9994464       -14.24954
0.78                   0.9994761       -14.33907
0.784                  0.9995023       -14.42893
0.788                  0.9995248        -14.5191
0.792                  0.9995437       -14.60959
0.796                  0.9995588       -14.70038
0.8                    0.9995702       -14.79147
0.804                  0.9995775       -14.88286
0.808                  0.9995808       -14.97452
0.812                  0.9995799       -15.06646
0.816                   0.999575       -15.15867
0.82                    0.999566       -15.25114
0.824                  0.9995527       -15.34386
0.828                  0.9995353       -15.43683
0.832                  0.9995135       -15.53003
0.836                  0.9994875       -15.62345
0.84                   0.9994571        -15.7171
0.844                  0.9994225       -15.81096
0.848                  0.9993835       -15.90502
0.852                  0.9993404       -15.99928
0.856                   0.999293       -16.09372
0.86                   0.9992413       -16.18834
0.864                  0.9991856       -16.28314
0.868                  0.9991255       -16.37809
0.872                  0.9990617        -16.4732
0.876                  0.9989935       -16.56846
0.88                   0.9989217       -16.66386
0.884                  0.9988458       -16.75939
0.888                  0.9987662       -16.85505
0.892                   0.998683       -16.95083
0.896                  0.9985962       -17.04671
0.9                     0.998506       -17.14271
0.904                  0.9984123       -17.23881
0.908                  0.9983153         -17.335
0.912                  0.9982153       -17.43129
0.916                  0.9981122       -17.52766
0.92                   0.9980064        -17.6241
0.924                  0.9978978       -17.72063
0.928                  0.9977868       -17.81723
0.932                  0.9976732        -17.9139
0.936                  0.9975574       -18.01063
0.94                   0.9974397       -18.10743
0.944                  0.9973199       -18.20429
0.948                  0.9971983       -18.30121
0.952                  0.9970754       -18.39819
0.956                   0.996951       -18.49523
0.96                   0.9968253       -18.59233
0.964                  0.9966986       -18.68949
0.968                  0.9965709       -18.78671
0.972                  0.9964428       -18.88399
0.976                  0.9963141       -18.98133
0.98                   0.9961852       -19.07874
0.984                   0.996056       -19.17622
0.988                   0.995927       -19.27377
0.992                  0.9957985        -19.3714
0.996                  0.9956701       -19.46911
1                      0.9955425        -19.5669
1.004                  0.9954158       -19.66479
1.008                    0.99529       -19.76279
1.012                  0.9951654       -19.86087
1.016                  0.9950422       -19.95909
1.02                   0.9949205       -20.05741
1.024                  0.9948005       -20.15585
1.028                  0.9946824       -20.25445
1.032                  0.9945664       -20.35319
1.036                  0.9944525       -20.45209
1.04                   0.9943408       -20.55115
1.044                  0.9942318       -20.65038
1.048                  0.9941254       -20.74983
1.052                  0.9940216       -20.84947
1.056                  0.9939208        -20.9493
1.06                   0.9938229       -21.04938
1.064                  0.9937283        -21.1497
1.068                  0.9936367       -21.25024
1.072                  0.9935486       -21.35108
1.076                  0.9934638       -21.45222
1.08                   0.9933824       -21.55364
1.084                  0.9933048       -21.65535
1.088                  0.9932307       -21.75739
1.092                  0.9931602       -21.85976
1.096                  0.9930935       -21.96249
1.1                    0.9930305       -22.06562
1.104                  0.9929713       -22.16912
1.108                  0.9929159       -22.27302
1.112                  0.9928643       -22.37736
1.116                  0.9928165       -22.48213
1.12                   0.9927724       -22.58734
1.124                  0.9927322       -22.69302
1.128                  0.9926955       -22.79919
1.132                  0.9926626       -22.90587
1.136                  0.9926333       -23.01307
1.14                   0.9926076       -23.12081
1.144                  0.9925854        -23.2291
1.148                  0.9925665       -23.33796
1.152                   0.992551       -23.44741
1.156                  0.9925387       -23.55746
1.16                   0.9925294       -23.66813
1.164                   0.992523       -23.77944
1.168                  0.9925196        -23.8914
1.172                  0.9925187       -24.00403
1.176                  0.9925203       -24.11734
1.18                   0.9925242       -24.23135
1.184                  0.9925305       -24.34607
1.188                  0.9925387       -24.46151
1.192                  0.9925486        -24.5777
1.196                  0.9925603       -24.69464
1.2                    0.9925733       -24.81235
1.204                  0.9925874       -24.93085
1.208                  0.9926026       -25.05013
1.212                  0.9926186       -25.17023
1.216                  0.9926349       -25.29114
1.22                   0.9926515       -25.41289
1.224                  0.9926683       -25.53547
1.228                  0.9926848        -25.6589
1.232                  0.9927008        -25.7832
1.236                  0.9927159       -25.90836
1.24                   0.9927304       -26.03439
1.244                  0.9927433       -26.16133
1.248                  0.9927547       -26.28915
1.252                  0.9927644       -26.41787
1.256                   0.992772        -26.5475
1.26                   0.9927771       -26.67805
1.264                  0.9927796       -26.80952
1.268                  0.9927792       -26.94191
1.272                  0.9927755       -27.07523
1.276                  0.9927686       -27.20948
1.28                   0.9927575       -27.34467
1.284                  0.9927426        -27.4808
1.288                  0.9927234       -27.61786
1.292                  0.9926996       -27.75587
1.296                  0.9926707       -27.89482
1.3                    0.9926371       -28.03471
1.304                  0.9925978       -28.17556
1.308                  0.9925529       -28.31734
1.312                   0.992502       -28.46006
1.316                   0.992445       -28.60373
1.32                   0.9923816       -28.74833
1.324                  0.9923115       -28.89387
1.328                  0.9922345       -29.04034
1.332                  0.9921503       -29.18774
1.336                  0.9920589       -29.33607
1.34                   0.9919599       -29.48531
1.344                  0.9918531       -29.63548
1.348                  0.9917382       -29.78656
1.352                  0.9916154       -29.93853
1.356                   0.991484       -30.09142
1.36                   0.9913442        -30.2452
1.364                  0.9911956       -30.39987
1.368                  0.9910383       -30.55542
1.372                  0.9908721       -30.71185
1.376                  0.9906967       -30.86914
1.38                    0.990512        -31.0273
1.384                  0.9903181       -31.18631
1.388                  0.9901146       -31.34618
1.392                  0.9899017       -31.50688
1.396                  0.9896791       -31.66841
1.4                    0.9894468       -31.83078
1.404                  0.9892048       -31.99396
1.408                   0.988953       -32.15796
1.412                  0.9886914       -32.32276
1.416                  0.9884199       -32.48836
1.42                   0.9881385       -32.65475
1.424                  0.9878474       -32.82193
1.428                  0.9875465       -32.98988
1.432                  0.9872356       -33.15861
1.436                  0.9869149       -33.32811
1.44                   0.9865846       -33.49837
1.444                  0.9862446       -33.66938
1.448                   0.985895       -33.84114
1.452                  0.9855356       -34.01365
1.456                   0.985167       -34.18691
1.46                   0.9847889        -34.3609
1.464                  0.9844018       -34.53563
1.468                  0.9840053        -34.7111
1.472                  0.9835999        -34.8873
1.476                  0.9831856       -35.06423
1.48                   0.9827625        -35.2419
1.484                  0.9823309        -35.4203
1.488                   0.981891       -35.59943
1.492                  0.9814427       -35.77929
1.496                  0.9809864       -35.95989
1.5                    0.9805221       -36.14123
1.504                  0.9800501       -36.32332
1.508                  0.9795707       -36.50615
1.512                   0.979084       -36.68975
1.516                  0.9785901        -36.8741
1.52                   0.9780893       -37.05922
1.524                  0.9775818       -37.24512
1.528                  0.9770677       -37.43182
1.532                  0.9765474       -37.61931
1.536                  0.9760209       -37.80761
1.54                   0.9754886       -37.99673
1.544                  0.9749506       -38.18668
1.548                  0.9744072        -38.3775
1.552                  0.9738586       -38.56917
1.556                  0.9733048       -38.76174
1.56                   0.9727463        -38.9552
1.564                  0.9721831       -39.14958
1.568                  0.9716156        -39.3449
1.572                  0.9710437       -39.54119
1.576                  0.9704678       -39.73846
1.58                   0.9698879       -39.93674
1.584                  0.9693043       -40.13606
1.588                  0.9687172       -40.33642
1.592                  0.9681267       -40.53788
1.596                  0.9675328       -40.74045
1.6                    0.9669357       -40.94416
1.604                  0.9663358       -41.14904
1.608                  0.9657328       -41.35514
1.612                  0.9651271       -41.56245
1.616                  0.9645187       -41.77105
1.62                   0.9639074       -41.98094
1.624                  0.9632935       -42.19217
1.628                  0.9626771       -42.40478
1.632                  0.9620581        -42.6188
1.636                  0.9614365       -42.83427
1.64                   0.9608123       -43.05123
1.644                  0.9601856       -43.26972
1.648                  0.9595561       -43.48977
1.652                  0.9589239       -43.71144
1.656                  0.9582889       -43.93476
1.66                   0.9576509       -44.15978
1.664                  0.9570098       -44.38655
1.668                  0.9563655       -44.61509
1.672                  0.9557177       -44.84547
1.676                  0.9550664       -45.07773
1.68                   0.9544113       -45.31191
1.684                  0.9537521       -45.54806
1.688                  0.9530885       -45.78623
1.692                  0.9524203       -46.02646
1.696                  0.9517472       -46.26882
1.7                     0.951069       -46.51333
1.704                   0.950385       -46.76006
1.708                  0.9496951       -47.00904
1.712                  0.9489987       -47.26034
1.716                  0.9482956         -47.514
1.72                   0.9475852       -47.77008
1.724                  0.9468669       -48.02861
1.728                  0.9461404       -48.28966
1.732                  0.9454052       -48.55327
1.736                  0.9446605       -48.81949
1.74                   0.9439061       -49.08837
1.744                  0.9431411       -49.35998
1.748                  0.9423651       -49.63433
1.752                  0.9415772        -49.9115
1.756                   0.940777       -50.19154
1.76                   0.9399637       -50.47449
1.764                  0.9391365        -50.7604
1.768                  0.9382948       -51.04931
1.772                  0.9374379        -51.3413
1.776                   0.936565       -51.63637
1.78                   0.9356751        -51.9346
1.784                  0.9347677       -52.23604
1.788                  0.9338419       -52.54072
1.792                  0.9328967       -52.84869
1.796                  0.9319315          -53.16
1.8                    0.9309452       -53.47469
1.804                   0.929937       -53.79282
1.808                   0.928906       -54.11441
1.812                  0.9278513       -54.43951
1.816                  0.9267719       -54.76818
1.82                   0.9256668       -55.10045
1.824                  0.9245354       -55.43636
1.828                  0.9233764       -55.77594
1.832                  0.9221888       -56.11924
1.836                  0.9209718       -56.46631
1.84                   0.9197244       -56.81718
1.844                  0.9184455       -57.17187
1.848                  0.9171342       -57.53044
1.852                  0.9157893       -57.89293
1.856                    0.91441       -58.25936
1.86                   0.9129951       -58.62978
1.864                  0.9115438       -59.00419
1.868                  0.9100549       -59.38267
1.872                  0.9085275       -59.76523
1.876                  0.9069605        -60.1519
1.88                   0.9053529       -60.54271
1.884                  0.9037037        -60.9377
1.888                  0.9020118        -61.3369
1.892                  0.9002764       -61.74033
1.896                  0.8984962       -62.14804
1.9                    0.8966706       -62.56004
1.904                  0.8947982       -62.97636
1.908                  0.8928782       -63.39703
1.912                  0.8909097       -63.82209
1.916                  0.8888916       -64.25156
1.92                   0.8868232       -64.68545
1.924                  0.8847034       -65.12381
1.928                  0.8825311       -65.56667
1.932                  0.8803056       -66.01403
1.936                  0.8780262       -66.46592
1.94                   0.8756916       -66.92238
1.944                  0.8733013       -67.38343
1.948                  0.8708542        -67.8491
1.952                  0.8683497       -68.31941
1.956                  0.8657869       -68.79437
1.96                    0.863165       -69.27403
1.964                  0.8604832       -69.75842
1.968                   0.857741       -70.24754
1.972                  0.8549374       -70.74142
1.976                   0.852072       -71.24011
1.98                   0.8491439       -71.74361
1.984                  0.8461525       -72.25196
1.988                  0.8430973        -72.7652
1.992                  0.8399776       -73.28334
1.996                   0.836793       -73.80641
2                      0.8335429       -74.33443
2.004                  0.8302267       -74.86746
2.008                  0.8268441        -75.4055
2.012                  0.8233946       -75.94861
2.016                  0.8198779       -76.49679
2.02                   0.8162934       -77.05012
2.024                  0.8126409       -77.60858
2.028                  0.8089202       -78.17225
2.032                   0.805131       -78.74115
2.036                  0.8012729       -79.31534
2.04                   0.7973457       -79.89481
2.044                  0.7933496       -80.47966
2.048                   0.789284        -81.0699
2.052                  0.7851493        -81.6656
2.056                  0.7809451        -82.2668
2.06                   0.7766714       -82.87351
2.064                  0.7723284       -83.48585
2.068                  0.7679161       -84.10384
2.072                  0.7634347       -84.72754
2.076                  0.7588841       -85.35701
2.08                   0.7542647       -85.99231
2.084                  0.7495767       -86.63351
2.088                  0.7448205        -87.2807
2.092                  0.7399961       -87.93391
2.096                  0.7351041       -88.59326
2.1                    0.7301449       -89.25881
2.104                  0.7251189       -89.93062
2.108                  0.7200265       -90.60881
2.112                  0.7148684       -91.29347
2.116                  0.7096452       -91.98468
2.12                   0.7043574       -92.68256
2.124                  0.6990057       -93.38719
2.128                   0.693591       -94.09871
2.132                  0.6881138       -94.81721
2.136                  0.6825752       -95.54283
2.14                   0.6769758       -96.27571
2.144                  0.6713167       -97.01595
2.148                   0.665599        -97.7637
2.152                  0.6598234       -98.51914
2.156                  0.6539912       -99.28238
2.16                   0.6481036       -100.0536
2.164                  0.6421615        -100.833
2.168                  0.6361663       -101.6207
2.172                  0.6301194        -102.417
2.176                  0.6240221        -103.222
2.18                   0.6178756       -104.0359
2.184                  0.6116817       -104.8589
2.188                  0.6054417       -105.6914
2.192                  0.5991574       -106.5334
2.196                  0.5928302       -107.3853
2.2                    0.5864619       -108.2473
2.204                  0.5800544       -109.1198
2.208                  0.5736094       -110.0029
2.212                   0.567129       -110.8971
2.216                   0.560615       -111.8026
2.22                   0.5540697       -112.7197
2.224                   0.547495       -113.6488
2.228                  0.5408932       -114.5903
2.232                  0.5342667       -115.5446
2.236                  0.5276178       -116.5121
2.24                    0.520949       -117.4931
2.244                  0.5142627       -118.4882
2.248                  0.5075618       -119.4978
2.252                   0.500849       -120.5224
2.256                   0.494127       -121.5625
2.26                   0.4873988       -122.6186
2.264                  0.4806676       -123.6913
2.268                  0.4739363       -124.7813
2.272                  0.4672085        -125.889
2.276                  0.4604874       -127.0152
2.28                   0.4537765       -128.1604
2.284                  0.4470796       -129.3255
2.288                  0.4404004       -130.5111
2.292                  0.4337429       -131.7179
2.296                  0.4271112       -132.9468
2.3                    0.4205095       -134.1986
2.304                  0.4139422       -135.4741
2.308                   0.407414       -136.7741
2.312                  0.4009294       -138.0996
2.316                  0.3944936       -139.4514
2.32                   0.3881117       -140.8305
2.324                  0.3817889        -142.238
2.328                  0.3755308       -143.6746
2.332                   0.369343       -145.1415
2.336                  0.3632316       -146.6396
2.34                   0.3572026         -148.17
2.344                  0.3512625       -149.7335
2.348                  0.3454178       -151.3313
2.352                  0.3396753       -152.9642