! TOUCHSTONE file generated by CST MICROWAVE STUDIO
! Date and time: Sat May 14 10:02:54 2022
! Project name: AppElm_antenne_dipole_Alumina.cst
! Parameters = {L=33; e=0.035; f=2.45e+09; h=1.6; i=0.64; l1=2; lambda=122.449; ls=30; wl=1.7; ws=80}
! Header version: 2018
! Port assignment regex: !\s*Touchstone port\s*([0-9]+)\s*=\s*(CST MWS port|CST DS port)\s*([0-9]+|Zmin|Zmax)\s*\(\"(.*)\"\)(\s*mode\s*([0-9]+))?.*
! Touchstone port assignment:
! Touchstone port 1 = CST MWS port 1 ("")
# GHz S MA R 50
0                      0.9999912              -0
0.004                  0.9999894     -0.06748904
0.008                  0.9999842      -0.1349688
0.012                  0.9999757      -0.2024299
0.016                  0.9999636      -0.2698632
0.02                   0.9999484      -0.3372595
0.024                  0.9999297      -0.4046098
0.028                  0.9999077      -0.4719051
0.032                  0.9998826      -0.5391367
0.036                  0.9998542      -0.6062959
0.04                   0.9998228      -0.6733744
0.044                  0.9997884      -0.7403639
0.048                   0.999751      -0.8072565
0.052                  0.9997109      -0.8740446
0.056                   0.999668      -0.9407209
0.06                   0.9996225       -1.007278
0.064                  0.9995746        -1.07371
0.068                  0.9995244       -1.140009
0.072                  0.9994719       -1.206171
0.076                  0.9994172       -1.272188
0.08                   0.9993606       -1.338057
0.084                  0.9993023       -1.403772
0.088                  0.9992422       -1.469329
0.092                  0.9991808       -1.534724
0.096                  0.9991179       -1.599953
0.1                    0.9990539       -1.665014
0.104                  0.9989888       -1.729904
0.108                   0.998923       -1.794621
0.112                  0.9988565       -1.859163
0.116                  0.9987893        -1.92353
0.12                   0.9987221       -1.987721
0.124                  0.9986546       -2.051736
0.128                  0.9985873       -2.115575
0.132                  0.9985201       -2.179239
0.136                  0.9984533       -2.242731
0.14                   0.9983872       -2.306052
0.144                  0.9983217       -2.369205
0.148                   0.998257       -2.432193
0.152                  0.9981936       -2.495019
0.156                  0.9981313       -2.557688
0.16                   0.9980705       -2.620204
0.164                  0.9980113       -2.682572
0.168                  0.9979537       -2.744798
0.172                  0.9978982       -2.806888
0.176                  0.9978446       -2.868848
0.18                   0.9977931       -2.930686
0.184                   0.997744       -2.992407
0.188                  0.9976974       -3.054022
0.192                  0.9976532       -3.115536
0.196                  0.9976119       -3.176958
0.2                    0.9975732       -3.238299
0.204                  0.9975375       -3.299567
0.208                  0.9975047        -3.36077
0.212                  0.9974751       -3.421919
0.216                  0.9974487       -3.483024
0.22                   0.9974253       -3.544094
0.224                  0.9974054       -3.605142
0.228                  0.9973889       -3.666175
0.232                  0.9973755       -3.727207
0.236                  0.9973658       -3.788247
0.24                   0.9973595       -3.849307
0.244                  0.9973566       -3.910398
0.248                  0.9973573        -3.97153
0.252                  0.9973615       -4.032715
0.256                   0.997369       -4.093964
0.26                   0.9973802       -4.155287
0.264                  0.9973947       -4.216698
0.268                  0.9974128       -4.278205
0.272                   0.997434       -4.339821
0.276                  0.9974586       -4.401555
0.28                   0.9974865       -4.463418
0.284                  0.9975175       -4.525422
0.288                  0.9975516       -4.587576
0.292                  0.9975888       -4.649889
0.296                  0.9976289       -4.712372
0.3                    0.9976718       -4.775033
0.304                  0.9977172       -4.837884
0.308                  0.9977654        -4.90093
0.312                   0.997816       -4.964182
0.316                  0.9978689       -5.027647
0.32                   0.9979239       -5.091333
0.324                   0.997981       -5.155248
0.328                  0.9980401       -5.219397
0.332                  0.9981007       -5.283788
0.336                  0.9981631       -5.348425
0.34                   0.9982268       -5.413315
0.344                  0.9982917       -5.478464
0.348                  0.9983577       -5.543874
0.352                  0.9984247        -5.60955
0.356                  0.9984922       -5.675497
0.36                   0.9985603       -5.741715
0.364                  0.9986288        -5.80821
0.368                  0.9986976       -5.874979
0.372                  0.9987662       -5.942029
0.376                  0.9988346       -6.009357
0.38                   0.9989027       -6.076963
0.384                  0.9989701        -6.14485
0.388                  0.9990368       -6.213016
0.392                  0.9991027       -6.281457
0.396                  0.9991673       -6.350175
0.4                    0.9992308       -6.419166
0.404                  0.9992926       -6.488427
0.408                  0.9993529       -6.557954
0.412                  0.9994115       -6.627745
0.416                  0.9994679       -6.697795
0.42                   0.9995223       -6.768099
0.424                  0.9995744       -6.838652
0.428                  0.9996242       -6.909448
0.432                  0.9996714       -6.980481
0.436                  0.9997158       -7.051746
0.44                   0.9997574       -7.123234
0.444                   0.999796       -7.194939
0.448                  0.9998317       -7.266853
0.452                  0.9998641        -7.33897
0.456                  0.9998933       -7.411278
0.46                   0.9999192       -7.483773
0.464                  0.9999415       -7.556442
0.468                  0.9999603       -7.629282
0.472                  0.9999758       -7.702277
0.476                  0.9999873       -7.775421
0.48                   0.9999952       -7.848707
0.484                  0.9999995       -7.922123
0.488                          1       -7.995658
0.492                  0.9999966       -8.069304
0.496                  0.9999896       -8.143049
0.5                    0.9999788       -8.216888
0.504                  0.9999643       -8.290809
0.508                  0.9999458       -8.364799
0.512                  0.9999238       -8.438851
0.516                  0.9998981       -8.512957
0.52                   0.9998686       -8.587106
0.524                  0.9998357       -8.661288
0.528                  0.9997992       -8.735494
0.532                  0.9997594       -8.809716
0.536                  0.9997161       -8.883946
0.54                   0.9996696       -8.958173
0.544                  0.9996199       -9.032392
0.548                  0.9995673       -9.106591
0.552                  0.9995117       -9.180767
0.556                  0.9994533        -9.25491
0.56                   0.9993922       -9.329013
0.564                  0.9993286       -9.403071
0.568                  0.9992626       -9.477078
0.572                  0.9991945       -9.551028
0.576                  0.9991242       -9.624913
0.58                   0.9990519       -9.698736
0.584                  0.9989781       -9.772485
0.588                  0.9989027        -9.84616
0.592                  0.9988259       -9.919758
0.596                  0.9987478       -9.993274
0.6                    0.9986688       -10.06671
0.604                   0.998589       -10.14006
0.608                  0.9985085       -10.21333
0.612                  0.9984276       -10.28651
0.616                  0.9983464        -10.3596
0.62                   0.9982652       -10.43262
0.624                  0.9981842       -10.50555
0.628                  0.9981036       -10.57839
0.632                  0.9980233       -10.65117
0.636                   0.997944       -10.72386
0.64                   0.9978656       -10.79649
0.644                  0.9977883       -10.86904
0.648                  0.9977123       -10.94154
0.652                  0.9976378       -11.01398
0.656                   0.997565       -11.08637
0.66                   0.9974941       -11.15872
0.664                  0.9974251       -11.23103
0.668                  0.9973585       -11.30331
0.672                  0.9972942       -11.37557
0.676                  0.9972323       -11.44782
0.68                   0.9971732       -11.52007
0.684                  0.9971168       -11.59232
0.688                  0.9970634       -11.66459
0.692                  0.9970131       -11.73689
0.696                  0.9969659       -11.80923
0.7                    0.9969221       -11.88162
0.704                  0.9968818       -11.95407
0.708                  0.9968449       -12.02659
0.712                  0.9968116        -12.0992
0.716                   0.996782       -12.17191
0.72                   0.9967561       -12.24473
0.724                  0.9967339       -12.31767
0.728                  0.9967157       -12.39076
0.732                  0.9967013       -12.46399
0.736                  0.9966908       -12.53739
0.74                   0.9966842       -12.61097
0.744                  0.9966815       -12.68473
0.748                  0.9966826       -12.75871
0.752                  0.9966877        -12.8329
0.756                  0.9966967       -12.90733
0.76                   0.9967093       -12.98201
0.764                  0.9967258       -13.05695
0.768                   0.996746       -13.13216
0.772                  0.9967698       -13.20765
0.776                  0.9967972       -13.28346
0.78                   0.9968279       -13.35957
0.784                   0.996862       -13.43601
0.788                  0.9968994       -13.51279
0.792                  0.9969398       -13.58992
0.796                  0.9969833       -13.66741
0.8                    0.9970295       -13.74528
0.804                  0.9970785       -13.82353
0.808                  0.9971299       -13.90218
0.812                  0.9971837       -13.98123
0.816                  0.9972397        -14.0607
0.82                   0.9972978        -14.1406
0.824                  0.9973577       -14.22093
0.828                   0.997419        -14.3017
0.832                  0.9974819       -14.38292
0.836                  0.9975461        -14.4646
0.84                   0.9976112       -14.54675
0.844                  0.9976771       -14.62936
0.848                  0.9977436       -14.71245
0.852                  0.9978104       -14.79602
0.856                  0.9978774       -14.88007
0.86                   0.9979443       -14.96462
0.864                  0.9980109       -15.04965
0.868                  0.9980768       -15.13518
0.872                   0.998142        -15.2212
0.876                  0.9982062       -15.30772
0.88                   0.9982691       -15.39473
0.884                  0.9983305       -15.48225
0.888                  0.9983904       -15.57026
0.892                  0.9984481       -15.65876
0.896                  0.9985039       -15.74775
0.9                    0.9985572       -15.83724
0.904                   0.998608       -15.92721
0.908                  0.9986559       -16.01767
0.912                  0.9987009        -16.1086
0.916                  0.9987428       -16.20001
0.92                   0.9987812       -16.29188
0.924                  0.9988161       -16.38422
0.928                   0.998847       -16.47701
0.932                  0.9988742       -16.57025
0.936                  0.9988974       -16.66394
0.94                   0.9989162       -16.75805
0.944                  0.9989307       -16.85259
0.948                  0.9989407       -16.94754
0.952                  0.9989461       -17.04291
0.956                  0.9989467       -17.13867
0.96                   0.9989425       -17.23482
0.964                  0.9989331       -17.33134
0.968                  0.9989189       -17.42824
0.972                  0.9988994       -17.52549
0.976                   0.998875       -17.62309
0.98                    0.998845       -17.72103
0.984                    0.99881       -17.81929
0.988                  0.9987697       -17.91786
0.992                  0.9987239       -18.01674
0.996                   0.998673       -18.11591
1                      0.9986167       -18.21537
1.004                  0.9985551       -18.31509
1.008                  0.9984884       -18.41507
1.012                  0.9984164       -18.51532
1.016                  0.9983392       -18.61578
1.02                   0.9982569       -18.71648
1.024                  0.9981697       -18.81738
1.028                  0.9980776       -18.91852
1.032                  0.9979807       -19.01983
1.036                   0.997879       -19.12138
1.04                   0.9977729       -19.22306
1.044                  0.9976623       -19.32492
1.048                  0.9975474       -19.42696
1.052                  0.9974284       -19.52917
1.056                  0.9973055       -19.63151
1.06                   0.9971789       -19.73399
1.064                  0.9970485       -19.83661
1.068                  0.9969149       -19.93936
1.072                  0.9967781       -20.04228
1.076                  0.9966381       -20.14528
1.08                   0.9964956       -20.24839
1.084                  0.9963504       -20.35166
1.088                  0.9962029       -20.45501
1.092                  0.9960533        -20.5585
1.096                  0.9959018       -20.66208
1.1                    0.9957489       -20.76579
1.104                  0.9955944        -20.8696
1.108                  0.9954389       -20.97353
1.112                  0.9952824        -21.0776
1.116                  0.9951254        -21.1818
1.12                   0.9949679       -21.28611
1.124                  0.9948105       -21.39056
1.128                  0.9946529       -21.49514
1.132                  0.9944959       -21.59986
1.136                  0.9943395       -21.70474
1.14                   0.9941839       -21.80979
1.144                  0.9940295         -21.915
1.148                  0.9938764       -22.02039
1.152                  0.9937249       -22.12597
1.156                  0.9935751       -22.23176
1.16                   0.9934274       -22.33776
1.164                  0.9932819       -22.44399
1.168                  0.9931388       -22.55046
1.172                  0.9929984       -22.65718
1.176                  0.9928608       -22.76418
1.18                   0.9927262       -22.87147
1.184                  0.9925946       -22.97907
1.188                  0.9924665       -23.08698
1.192                  0.9923418       -23.19524
1.196                  0.9922208       -23.30385
1.2                    0.9921035       -23.41285
1.204                  0.9919899       -23.52224
1.208                  0.9918804       -23.63204
1.212                  0.9917748       -23.74229
1.216                  0.9916733         -23.853
1.22                    0.991576       -23.96419
1.224                  0.9914829       -24.07588
1.228                  0.9913939        -24.1881
1.232                  0.9913093       -24.30086
1.236                  0.9912288        -24.4142
1.24                   0.9911525       -24.52812
1.244                  0.9910803       -24.64267
1.248                  0.9910124       -24.75785
1.252                  0.9909484       -24.87369
1.256                  0.9908884       -24.99022
1.26                   0.9908324       -25.10746
1.264                  0.9907799       -25.22542
1.268                  0.9907314       -25.34414
1.272                  0.9906861       -25.46364
1.276                  0.9906443       -25.58393
1.28                   0.9906056       -25.70504
1.284                  0.9905698         -25.827
1.288                  0.9905368       -25.94983
1.292                  0.9905064       -26.07353
1.296                  0.9904783       -26.19815
1.3                    0.9904522       -26.32368
1.304                  0.9904279       -26.45017
1.308                  0.9904053       -26.57762
1.312                  0.9903839       -26.70606
1.316                  0.9903635        -26.8355
1.32                   0.9903437       -26.96595
1.324                  0.9903243       -27.09745
1.328                  0.9903049       -27.22999
1.332                  0.9902853       -27.36361
1.336                  0.9902649       -27.49831
1.34                   0.9902436        -27.6341
1.344                  0.9902209         -27.771
1.348                  0.9901966       -27.90903
1.352                  0.9901701       -28.04819
1.356                  0.9901413        -28.1885
1.36                   0.9901094       -28.32997
1.364                  0.9900745       -28.47259
1.368                  0.9900359       -28.61639
1.372                  0.9899935       -28.76136
1.376                  0.9899467       -28.90753
1.38                   0.9898949       -29.05488
1.384                  0.9898382       -29.20344
1.388                  0.9897761       -29.35319
1.392                  0.9897078       -29.50415
1.396                  0.9896335       -29.65631
1.4                    0.9895525       -29.80969
1.404                  0.9894645       -29.96427
1.408                   0.989369       -30.12006
1.412                  0.9892658       -30.27706
1.416                  0.9891547       -30.43527
1.42                    0.989035       -30.59468
1.424                  0.9889068       -30.75529
1.428                  0.9887693        -30.9171
1.432                  0.9886226        -31.0801
1.436                  0.9884661        -31.2443
1.44                   0.9882998       -31.40968
1.444                  0.9881231       -31.57623
1.448                   0.987936       -31.74396
1.452                   0.987738       -31.91285
1.456                  0.9875292        -32.0829
1.46                   0.9873091        -32.2541
1.464                  0.9870777       -32.42645
1.468                  0.9868344       -32.59993
1.472                  0.9865795       -32.77452
1.476                  0.9863127       -32.95024
1.48                   0.9860337       -33.12707
1.484                  0.9857425       -33.30499
1.488                  0.9854389       -33.48401
1.492                   0.985123       -33.66411
1.496                  0.9847944       -33.84528
1.5                    0.9844533       -34.02751
1.504                  0.9840996       -34.21081
1.508                  0.9837333       -34.39515
1.512                  0.9833542       -34.58053
1.516                  0.9829624       -34.76694
1.52                   0.9825582       -34.95438
1.524                  0.9821411       -35.14284
1.528                  0.9817117       -35.33231
1.532                  0.9812696       -35.52278
1.536                  0.9808153       -35.71426
1.54                   0.9803485       -35.90675
1.544                  0.9798698       -36.10021
1.548                  0.9793789       -36.29468
1.552                  0.9788762       -36.49013
1.556                  0.9783616       -36.68658
1.56                   0.9778355       -36.88401
1.564                   0.977298       -37.08244
1.568                  0.9767494       -37.28186
1.572                  0.9761897       -37.48227
1.576                  0.9756194       -37.68369
1.58                   0.9750383       -37.88611
1.584                  0.9744471       -38.08955
1.588                  0.9738457       -38.29401
1.592                  0.9732345        -38.4995
1.596                  0.9726137       -38.70603
1.6                    0.9719836       -38.91363
1.604                  0.9713444       -39.12229
1.608                  0.9706964       -39.33203
1.612                  0.9700399       -39.54288
1.616                   0.969375       -39.75485
1.62                   0.9687021       -39.96796
1.624                  0.9680215       -40.18223
1.628                  0.9673333       -40.39768
1.632                  0.9666378       -40.61436
1.636                  0.9659352       -40.83226
1.64                   0.9652259       -41.05143
1.644                    0.96451       -41.27189
1.648                  0.9637878       -41.49368
1.652                  0.9630595       -41.71684
1.656                   0.962325       -41.94139
1.66                   0.9615848       -42.16737
1.664                  0.9608391       -42.39481
1.668                  0.9600879       -42.62378
1.672                  0.9593313       -42.85429
1.676                  0.9585695        -43.0864
1.68                   0.9578025       -43.32014
1.684                  0.9570305       -43.55558
1.688                  0.9562536       -43.79274
1.692                  0.9554715       -44.03169
1.696                  0.9546846       -44.27248
1.7                    0.9538927       -44.51514
1.704                  0.9530955       -44.75975
1.708                  0.9522934       -45.00636
1.712                  0.9514861       -45.25501
1.716                  0.9506732       -45.50579
1.72                   0.9498551       -45.75871
1.724                  0.9490311       -46.01387
1.728                  0.9482011       -46.27131
1.732                  0.9473651       -46.53111
1.736                  0.9465225       -46.79332
1.74                   0.9456732         -47.058
1.744                  0.9448167       -47.32523
1.748                  0.9439526       -47.59506
1.752                  0.9430806       -47.86756
1.756                  0.9422003        -48.1428
1.76                    0.941311       -48.42084
1.764                  0.9404123       -48.70176
1.768                  0.9395036       -48.98562
1.772                  0.9385843       -49.27249
1.776                  0.9376538       -49.56243
1.78                   0.9367115       -49.85552
1.784                  0.9357566       -50.15183
1.788                  0.9347884       -50.45142
1.792                  0.9338062       -50.75436
1.796                   0.932809       -51.06073
1.8                    0.9317962       -51.37058
1.804                  0.9307668         -51.684
1.808                  0.9297199       -52.00105
1.812                  0.9286546       -52.32178
1.816                    0.92757       -52.64629
1.82                   0.9264651       -52.97461
1.824                  0.9253387       -53.30685
1.828                    0.92419       -53.64303
1.832                  0.9230179       -53.98325
1.836                  0.9218212       -54.32755
1.84                   0.9205987       -54.67601
1.844                  0.9193494        -55.0287
1.848                  0.9180722       -55.38566
1.852                  0.9167657       -55.74697
1.856                  0.9154288       -56.11268
1.86                   0.9140603       -56.48286
1.864                  0.9126589       -56.85756
1.868                  0.9112235       -57.23683
1.872                  0.9097525       -57.62075
1.876                  0.9082449       -58.00938
1.88                   0.9066993       -58.40274
1.884                  0.9051144        -58.8009
1.888                  0.9034889       -59.20394
1.892                  0.9018216       -59.61188
1.896                  0.9001109       -60.02478
1.9                    0.8983556        -60.4427
1.904                  0.8965545       -60.86568
1.908                  0.8947062       -61.29377
1.912                  0.8928092       -61.72702
1.916                  0.8908624       -62.16549
1.92                   0.8888643       -62.60921
1.924                  0.8868138       -63.05823
1.928                  0.8847095        -63.5126
1.932                  0.8825501       -63.97236
1.936                  0.8803342       -64.43756
1.94                   0.8780607       -64.90822
1.944                  0.8757282       -65.38442
1.948                  0.8733359       -65.86617
1.952                   0.870882       -66.35355
1.956                  0.8683656       -66.84655
1.96                   0.8657856       -67.34524
1.964                  0.8631407       -67.84967
1.968                  0.8604298       -68.35988
1.972                  0.8576519       -68.87588
1.976                  0.8548058       -69.39776
1.98                   0.8518906       -69.92552
1.984                  0.8489053       -70.45922
1.988                  0.8458489        -70.9989
1.992                  0.8427203        -71.5446
1.996                  0.8395189       -72.09634
2                      0.8362435       -72.65423
2.004                  0.8328937       -73.21824
2.008                  0.8294683       -73.78847
2.012                  0.8259669       -74.36492
2.016                  0.8223885       -74.94767
2.02                   0.8187326       -75.53678
2.024                  0.8149987       -76.13225
2.028                   0.811186       -76.73418
2.032                  0.8072942       -77.34259
2.036                  0.8033228       -77.95756
2.04                   0.7992714       -78.57912
2.044                  0.7951394       -79.20736
2.048                  0.7909269       -79.84233
2.052                  0.7866333       -80.48406
2.056                  0.7822586       -81.13267
2.06                   0.7778026        -81.7882
2.064                  0.7732652       -82.45073
2.068                  0.7686465       -83.12032
2.072                  0.7639463       -83.79709
2.076                  0.7591649       -84.48108
2.08                   0.7543024       -85.17239
2.084                  0.7493589       -85.87111
2.088                  0.7443349       -86.57734
2.092                  0.7392306       -87.29118
2.096                  0.7340465       -88.01273
2.1                     0.728783       -88.74209
2.104                  0.7234406       -89.47941
2.108                  0.7180201       -90.22479
2.112                  0.7125219       -90.97833
2.116                  0.7069471       -91.74021
2.12                   0.7012963       -92.51055
2.124                  0.6955704       -93.28949
2.128                  0.6897705        -94.0772
2.132                  0.6838975       -94.87385
2.136                  0.6779526       -95.67958
2.14                    0.671937        -96.4946
2.144                  0.6658519       -97.31909
2.148                  0.6596989       -98.15327
2.152                  0.6534791       -98.99732
2.156                  0.6471942       -99.85148
2.16                   0.6408458        -100.716
2.164                  0.6344356        -101.591
2.168                  0.6279654        -102.477
2.172                  0.6214368        -103.374
2.176                  0.6148522       -104.2824
2.18                   0.6082133       -105.2026
2.184                  0.6015224       -106.1347
2.188                  0.5947817       -107.0792
2.192                  0.5879934       -108.0364
2.196                  0.5811602       -109.0067
2.2                    0.5742846       -109.9905
2.204                  0.5673692        -110.988
2.208                  0.5604166       -111.9999
2.212                  0.5534299       -113.0265
2.216                   0.546412       -114.0683
2.22                   0.5393661       -115.1259
2.224                  0.5322953       -116.1996
2.228                  0.5252031       -117.2901
2.232                   0.518093       -118.3979
2.236                  0.5109687       -119.5237
2.24                   0.5038338        -120.668
2.244                  0.4966924       -121.8315
2.248                  0.4895486        -123.015
2.252                  0.4824066        -124.219
2.256                  0.4752708       -125.4444
2.26                   0.4681459        -126.692
2.264                  0.4610368       -127.9625
2.268                  0.4539482       -129.2569
2.272                  0.4468855       -130.5759
2.276                   0.439854       -131.9204
2.28                   0.4328592       -133.2915
2.284                  0.4259072       -134.6901
2.288                  0.4190036       -136.1172
2.292                  0.4121551       -137.5737
2.296                  0.4053681       -139.0608
2.3                    0.3986492       -140.5795
2.304                  0.3920056       -142.1308
2.308                  0.3854446       -143.7159
2.312                  0.3789736       -145.3357
2.316                  0.3726006       -146.9914
2.32                   0.3663335        -148.684
2.324                  0.3601808       -150.4145
2.328                  0.3541509       -152.1838
2.332                  0.3482529       -153.9929
2.336                  0.3424957       -155.8426
2.34                   0.3368886       -157.7335
2.344                  0.3314411       -159.6663
2.348                  0.3261629       -161.6414
2.352                  0.3210636       -163.6591