! TOUCHSTONE file generated by CST MICROWAVE STUDIO
! Date and time: Sat May 14 10:03:02 2022
! Project name: AppElm_antenne_dipole_Alumina.cst
! Parameters = {L=33; e=0.035; f=2.45e+09; h=1.6; i=0.96; l1=2; lambda=122.449; ls=30; wl=1.7; ws=80}
! Header version: 2018
! Port assignment regex: !\s*Touchstone port\s*([0-9]+)\s*=\s*(CST MWS port|CST DS port)\s*([0-9]+|Zmin|Zmax)\s*\(\"(.*)\"\)(\s*mode\s*([0-9]+))?.*
! Touchstone port assignment:
! Touchstone port 1 = CST MWS port 1 ("")
# GHz S MA R 50
0                      0.9971996              -0
0.004                   0.997201     -0.06546972
0.008                  0.9972054      -0.1309478
0.012                  0.9972127      -0.1964427
0.016                  0.9972227      -0.2619626
0.02                   0.9972358      -0.3275159
0.024                  0.9972516      -0.3931109
0.028                  0.9972702      -0.4587557
0.032                  0.9972917      -0.5244582
0.036                  0.9973158      -0.5902265
0.04                   0.9973426      -0.6560684
0.044                  0.9973721      -0.7219917
0.048                  0.9974041      -0.7880038
0.052                  0.9974386       -0.854112
0.056                  0.9974754      -0.9203238
0.06                   0.9975146       -0.986646
0.064                  0.9975561       -1.053085
0.068                  0.9975998       -1.119648
0.072                  0.9976456       -1.186342
0.076                  0.9976933       -1.253171
0.08                    0.997743       -1.320143
0.084                  0.9977944       -1.387262
0.088                  0.9978475       -1.454535
0.092                  0.9979021       -1.521965
0.096                  0.9979583       -1.589558
0.1                    0.9980158       -1.657319
0.104                  0.9980745       -1.725251
0.108                  0.9981343       -1.793358
0.112                  0.9981951       -1.861645
0.116                  0.9982567       -1.930113
0.12                   0.9983191       -1.998766
0.124                   0.998382       -2.067607
0.128                  0.9984455       -2.136637
0.132                  0.9985092       -2.205858
0.136                  0.9985732       -2.275273
0.14                   0.9986372       -2.344882
0.144                  0.9987011       -2.414686
0.148                  0.9987649       -2.484686
0.152                  0.9988284       -2.554881
0.156                  0.9988913       -2.625272
0.16                   0.9989535       -2.695857
0.164                  0.9990152       -2.766637
0.168                  0.9990761        -2.83761
0.172                  0.9991358       -2.908774
0.176                  0.9991945       -2.980128
0.18                   0.9992519       -3.051668
0.184                  0.9993081       -3.123394
0.188                  0.9993627       -3.195302
0.192                  0.9994157       -3.267389
0.196                   0.999467       -3.339652
0.2                    0.9995165       -3.412087
0.204                  0.9995642       -3.484689
0.208                  0.9996098       -3.557456
0.212                  0.9996533       -3.630381
0.216                  0.9996945       -3.703462
0.22                   0.9997336       -3.776691
0.224                  0.9997701       -3.850066
0.228                  0.9998043        -3.92358
0.232                  0.9998359       -3.997227
0.236                  0.9998649       -4.071002
0.24                   0.9998912       -4.144899
0.244                  0.9999149       -4.218913
0.248                  0.9999356       -4.293035
0.252                  0.9999535       -4.367261
0.256                  0.9999687       -4.441583
0.26                   0.9999808       -4.515996
0.264                  0.9999901       -4.590492
0.268                  0.9999964       -4.665065
0.272                  0.9999998       -4.739707
0.276                          1       -4.814413
0.28                   0.9999973       -4.889176
0.284                  0.9999916       -4.963987
0.288                  0.9999828       -5.038841
0.292                  0.9999712        -5.11373
0.296                  0.9999564       -5.188648
0.3                    0.9999387       -5.263589
0.304                  0.9999182       -5.338544
0.308                  0.9998947       -5.413508
0.312                  0.9998684       -5.488475
0.316                  0.9998394       -5.563436
0.32                   0.9998075       -5.638387
0.324                  0.9997729       -5.713322
0.328                  0.9997358       -5.788233
0.332                  0.9996962       -5.863117
0.336                  0.9996539       -5.937966
0.34                   0.9996092       -6.012774
0.344                  0.9995623       -6.087538
0.348                  0.9995133       -6.162252
0.352                   0.999462       -6.236912
0.356                  0.9994087       -6.311511
0.36                   0.9993534       -6.386048
0.364                  0.9992964       -6.460517
0.368                  0.9992376       -6.534913
0.372                  0.9991773       -6.609235
0.376                  0.9991154        -6.68348
0.38                   0.9990521       -6.757644
0.384                  0.9989877       -6.831724
0.388                  0.9989221       -6.905719
0.392                  0.9988556       -6.979626
0.396                  0.9987881       -7.053444
0.4                    0.9987201       -7.127172
0.404                  0.9986514        -7.20081
0.408                  0.9985822       -7.274357
0.412                  0.9985128       -7.347811
0.416                  0.9984433       -7.421173
0.42                   0.9983735       -7.494447
0.424                  0.9983041        -7.56763
0.428                  0.9982347       -7.640726
0.432                  0.9981658       -7.713735
0.436                  0.9980975       -7.786658
0.44                   0.9980298         -7.8595
0.444                  0.9979629       -7.932265
0.448                  0.9978968       -8.004953
0.452                   0.997832       -8.077567
0.456                  0.9977683       -8.150113
0.46                    0.997706       -8.222595
0.464                  0.9976451       -8.295018
0.468                  0.9975858       -8.367386
0.472                  0.9975282       -8.439707
0.476                  0.9974723        -8.51198
0.48                   0.9974185        -8.58422
0.484                  0.9973667       -8.656427
0.488                   0.997317       -8.728607
0.492                  0.9972696       -8.800771
0.496                  0.9972244       -8.872924
0.5                    0.9971819       -8.945071
0.504                  0.9971417       -9.017225
0.508                  0.9971042       -9.089389
0.512                  0.9970694       -9.161574
0.516                  0.9970375       -9.233786
0.52                   0.9970082       -9.306036
0.524                  0.9969818       -9.378333
0.528                  0.9969585       -9.450681
0.532                  0.9969379       -9.523096
0.536                  0.9969205       -9.595583
0.54                   0.9969062        -9.66815
0.544                   0.996895       -9.740809
0.548                  0.9968869       -9.813571
0.552                  0.9968819       -9.886441
0.556                    0.99688       -9.959433
0.56                   0.9968813       -10.03255
0.564                  0.9968858       -10.10581
0.568                  0.9968933       -10.17922
0.572                  0.9969039       -10.25279
0.576                  0.9969177       -10.32653
0.58                   0.9969345       -10.40045
0.584                  0.9969544       -10.47455
0.588                  0.9969771       -10.54885
0.592                  0.9970028       -10.62336
0.596                  0.9970315       -10.69808
0.6                    0.9970628       -10.77303
0.604                   0.997097       -10.84821
0.608                  0.9971337       -10.92364
0.612                  0.9971731       -10.99932
0.616                  0.9972149       -11.07525
0.62                   0.9972592       -11.15146
0.624                  0.9973057       -11.22794
0.628                  0.9973545       -11.30471
0.632                  0.9974052       -11.38176
0.636                  0.9974581       -11.45912
0.64                   0.9975127       -11.53678
0.644                   0.997569       -11.61476
0.648                  0.9976269       -11.69305
0.652                  0.9976863       -11.77167
0.656                  0.9977471       -11.85062
0.66                    0.997809        -11.9299
0.664                   0.997872       -12.00953
0.668                  0.9979358        -12.0895
0.672                  0.9980004       -12.16983
0.676                  0.9980655        -12.2505
0.68                   0.9981312       -12.33154
0.684                  0.9981972       -12.41293
0.688                  0.9982633       -12.49469
0.692                  0.9983293       -12.57682
0.696                  0.9983952       -12.65931
0.7                    0.9984607       -12.74217
0.704                  0.9985258       -12.82541
0.708                  0.9985902       -12.90902
0.712                  0.9986536         -12.993
0.716                  0.9987162       -13.07735
0.72                   0.9987777       -13.16208
0.724                  0.9988377       -13.24718
0.728                  0.9988965       -13.33265
0.732                  0.9989535       -13.41849
0.736                  0.9990088       -13.50469
0.74                   0.9990623       -13.59126
0.744                  0.9991136        -13.6782
0.748                  0.9991627       -13.76549
0.752                  0.9992097       -13.85315
0.756                  0.9992541       -13.94115
0.76                   0.9992958       -14.02951
0.764                  0.9993349       -14.11821
0.768                  0.9993711       -14.20725
0.772                  0.9994043       -14.29662
0.776                  0.9994344       -14.38633
0.78                   0.9994614       -14.47636
0.784                  0.9994851       -14.56672
0.788                  0.9995055       -14.65738
0.792                  0.9995222       -14.74836
0.796                  0.9995355       -14.83963
0.8                    0.9995451        -14.9312
0.804                  0.9995509       -15.02306
0.808                  0.9995531        -15.1152
0.812                  0.9995514       -15.20761
0.816                  0.9995458       -15.30029
0.82                   0.9995362       -15.39324
0.824                  0.9995226       -15.48643
0.828                  0.9995051       -15.57987
0.832                  0.9994836       -15.67354
0.836                   0.999458       -15.76744
0.84                   0.9994282       -15.86157
0.844                  0.9993945       -15.95591
0.848                  0.9993568       -16.05046
0.852                  0.9993148       -16.14521
0.856                   0.999269       -16.24015
0.86                   0.9992193       -16.33527
0.864                  0.9991655       -16.43058
0.868                  0.9991078       -16.52605
0.872                  0.9990462       -16.62168
0.876                   0.998981       -16.71747
0.88                   0.9989118       -16.81341
0.884                  0.9988391       -16.90949
0.888                  0.9987628       -17.00571
0.892                  0.9986829       -17.10206
0.896                  0.9985997       -17.19853
0.9                    0.9985132       -17.29512
0.904                  0.9984234       -17.39182
0.908                  0.9983306       -17.48863
0.912                  0.9982347       -17.58554
0.916                  0.9981362       -17.68256
0.92                   0.9980348       -17.77966
0.924                  0.9979309       -17.87686
0.928                  0.9978244       -17.97414
0.932                  0.9977157       -18.07151
0.936                  0.9976048       -18.16896
0.94                   0.9974919       -18.26649
0.944                  0.9973773       -18.36409
0.948                  0.9972608       -18.46178
0.952                  0.9971428       -18.55953
0.956                  0.9970235       -18.65737
0.96                   0.9969031       -18.75527
0.964                  0.9967815       -18.85325
0.968                  0.9966591       -18.95131
0.972                   0.996536       -19.04945
0.976                  0.9964125       -19.14767
0.98                   0.9962886       -19.24597
0.984                  0.9961645       -19.34435
0.988                  0.9960405       -19.44283
0.992                  0.9959167       -19.54139
0.996                  0.9957932       -19.64006
1                      0.9956702       -19.73882
1.004                  0.9955481        -19.8377
1.008                  0.9954267       -19.93668
1.012                  0.9953065        -20.0358
1.016                  0.9951874         -20.135
1.02                   0.9950697        -20.2344
1.024                  0.9949536        -20.3339
1.028                  0.9948391       -20.43357
1.032                  0.9947265        -20.5334
1.036                  0.9946159       -20.63339
1.04                   0.9945074       -20.73358
1.044                  0.9944012       -20.83392
1.048                  0.9942974       -20.93452
1.052                  0.9941961       -21.03528
1.056                  0.9940975       -21.13628
1.06                   0.9940015       -21.23753
1.064                  0.9939084       -21.33903
1.068                  0.9938184       -21.44077
1.072                  0.9937314       -21.54279
1.076                  0.9936475       -21.64508
1.08                   0.9935668       -21.74772
1.084                  0.9934894       -21.85064
1.088                  0.9934153       -21.95388
1.092                  0.9933446       -22.05748
1.096                  0.9932773       -22.16147
1.1                    0.9932135       -22.26581
1.104                  0.9931532       -22.37055
1.108                  0.9930964       -22.47568
1.112                  0.9930431       -22.58125
1.116                  0.9929933       -22.68723
1.12                   0.9929469       -22.79367
1.124                   0.992904        -22.9006
1.128                  0.9928645       -23.00799
1.132                  0.9928285        -23.1159
1.136                  0.9927957       -23.22432
1.14                   0.9927662       -23.33327
1.144                    0.99274       -23.44277
1.148                  0.9927168       -23.55284
1.152                  0.9926967       -23.66348
1.156                  0.9926795       -23.77473
1.16                   0.9926651       -23.88658
1.164                  0.9926535       -23.99907
1.168                  0.9926444       -24.11219
1.172                  0.9926378       -24.22597
1.176                  0.9926334       -24.34043
1.18                   0.9926311       -24.45557
1.184                  0.9926308       -24.57141
1.188                  0.9926323       -24.68798
1.192                  0.9926355       -24.80526
1.196                  0.9926401       -24.92329
1.2                    0.9926459       -25.04208
1.204                  0.9926527       -25.16164
1.208                  0.9926604       -25.28196
1.212                  0.9926687       -25.40309
1.216                  0.9926774       -25.52502
1.22                   0.9926862       -25.64776
1.224                  0.9926949       -25.77133
1.228                  0.9927033       -25.89574
1.232                  0.9927113       -26.02098
1.236                  0.9927184       -26.14709
1.24                   0.9927245       -26.27405
1.244                  0.9927293       -26.40189
1.248                  0.9927324        -26.5306
1.252                  0.9927338        -26.6602
1.256                  0.9927333       -26.79069
1.26                   0.9927301       -26.92208
1.264                  0.9927245       -27.05437
1.268                   0.992716       -27.18758
1.272                  0.9927043       -27.32169
1.276                  0.9926892       -27.45673
1.28                   0.9926705       -27.59268
1.284                  0.9926478       -27.72955
1.288                   0.992621       -27.86736
1.292                  0.9925897       -28.00609
1.296                  0.9925536       -28.14574
1.3                    0.9925125       -28.28634
1.304                  0.9924662       -28.42786
1.308                  0.9924144        -28.5703
1.312                   0.992357       -28.71369
1.316                  0.9922934         -28.858
1.32                   0.9922237       -29.00323
1.324                  0.9921477       -29.14939
1.328                  0.9920647       -29.29648
1.332                  0.9919751       -29.44449
1.336                  0.9918784        -29.5934
1.34                   0.9917742       -29.74324
1.344                  0.9916627       -29.89398
1.348                  0.9915434       -30.04563
1.352                  0.9914161       -30.19818
1.356                  0.9912809       -30.35163
1.36                   0.9911374       -30.50597
1.364                  0.9909856       -30.66119
1.368                  0.9908251        -30.8173
1.372                  0.9906561       -30.97427
1.376                  0.9904782       -31.13212
1.38                   0.9902914       -31.29083
1.384                  0.9900956        -31.4504
1.388                  0.9898906       -31.61081
1.392                  0.9896764       -31.77207
1.396                  0.9894528       -31.93416
1.4                    0.9892199       -32.09709
1.404                  0.9889776       -32.26084
1.408                  0.9887258       -32.42541
1.412                  0.9884645       -32.59079
1.416                  0.9881935       -32.75698
1.42                   0.9879132       -32.92396
1.424                   0.987623       -33.09175
1.428                  0.9873235       -33.26032
1.432                  0.9870143       -33.42967
1.436                  0.9866957       -33.59981
1.44                   0.9863674       -33.77071
1.444                  0.9860299       -33.94239
1.448                  0.9856828       -34.11483
1.452                  0.9853266       -34.28804
1.456                   0.984961         -34.462
1.46                   0.9845863       -34.63672
1.464                  0.9842025       -34.81219
1.468                  0.9838099       -34.98842
1.472                  0.9834083       -35.16539
1.476                   0.982998       -35.34312
1.48                   0.9825792        -35.5216
1.484                  0.9821518       -35.70083
1.488                  0.9817163       -35.88081
1.492                  0.9812724       -36.06154
1.496                  0.9808207       -36.24304
1.5                    0.9803611        -36.4253
1.504                  0.9798939       -36.60832
1.508                  0.9794191       -36.79212
1.512                   0.978937       -36.97669
1.516                  0.9784477       -37.16205
1.52                   0.9779515        -37.3482
1.524                  0.9774487       -37.53515
1.528                  0.9769392       -37.72291
1.532                  0.9764234       -37.91149
1.536                  0.9759013       -38.10091
1.54                   0.9753733       -38.29117
1.544                  0.9748394       -38.48229
1.548                     0.9743       -38.67429
1.552                  0.9737551       -38.86717
1.556                   0.973205       -39.06096
1.56                   0.9726498       -39.25567
1.564                  0.9720899       -39.45132
1.568                  0.9715251       -39.64793
1.572                   0.970956       -39.84553
1.576                  0.9703824       -40.04413
1.58                   0.9698046       -40.24376
1.584                  0.9692227       -40.44444
1.588                   0.968637       -40.64619
1.592                  0.9680476       -40.84905
1.596                  0.9674544       -41.05304
1.6                    0.9668577       -41.25818
1.604                  0.9662577        -41.4645
1.608                  0.9656541       -41.67205
1.612                  0.9650475       -41.88085
1.616                  0.9644377       -42.09091
1.62                   0.9638246       -42.30231
1.624                  0.9632085       -42.51504
1.628                  0.9625893       -42.72915
1.632                  0.9619672       -42.94468
1.636                  0.9613419       -43.16167
1.64                   0.9607134       -43.38015
1.644                  0.9600819       -43.60017
1.648                  0.9594471       -43.82175
1.652                  0.9588092       -44.04495
1.656                  0.9581678        -44.2698
1.66                    0.957523       -44.49635
1.664                  0.9568745       -44.72463
1.668                  0.9562222       -44.95469
1.672                   0.955566       -45.18657
1.676                  0.9549057       -45.42033
1.68                    0.954241       -45.65599
1.684                  0.9535718       -45.89361
1.688                  0.9528976       -46.13324
1.692                  0.9522183       -46.37492
1.696                  0.9515335        -46.6187
1.7                    0.9508429       -46.86462
1.704                  0.9501462       -47.11274
1.708                  0.9494431       -47.36309
1.712                   0.948733       -47.61574
1.716                  0.9480157       -47.87071
1.72                   0.9472905       -48.12808
1.724                   0.946557       -48.38788
1.728                  0.9458149       -48.65016
1.732                  0.9450636       -48.91497
1.736                  0.9443024       -49.18237
1.74                   0.9435311       -49.45238
1.744                  0.9427488       -49.72508
1.748                  0.9419551        -50.0005
1.752                  0.9411492        -50.2787
1.756                  0.9403305       -50.55972
1.76                   0.9394985       -50.84361
1.764                  0.9386523       -51.13042
1.768                  0.9377913       -51.42018
1.772                  0.9369149       -51.71297
1.776                  0.9360221       -52.00881
1.78                   0.9351124       -52.30775
1.784                  0.9341848       -52.60984
1.788                  0.9332386       -52.91515
1.792                   0.932273       -53.22368
1.796                  0.9312873       -53.53549
1.8                    0.9302803       -53.85064
1.804                  0.9292515       -54.16916
1.808                  0.9281998        -54.4911
1.812                  0.9271245       -54.81649
1.816                  0.9260244       -55.14538
1.82                   0.9248989       -55.47781
1.824                  0.9237469       -55.81383
1.828                  0.9225675       -56.15346
1.832                  0.9213598       -56.49675
1.836                  0.9201228       -56.84375
1.84                   0.9188556       -57.19448
1.844                  0.9175573       -57.54897
1.848                  0.9162267       -57.90728
1.852                  0.9148629       -58.26944
1.856                   0.913465       -58.63547
1.86                    0.912032       -59.00542
1.864                  0.9105629       -59.37932
1.868                  0.9090567       -59.75721
1.872                  0.9075123       -60.13911
1.876                   0.905929       -60.52505
1.88                   0.9043055       -60.91508
1.884                   0.902641       -61.30921
1.888                  0.9009344       -61.70748
1.892                  0.8991848       -62.10992
1.896                  0.8973914       -62.51657
1.9                    0.8955528       -62.92743
1.904                  0.8936684       -63.34256
1.908                  0.8917372       -63.76195
1.912                  0.8897582       -64.18569
1.916                  0.8877303       -64.61374
1.92                   0.8856529       -65.04617
1.924                  0.8835249       -65.48297
1.928                  0.8813455        -65.9242
1.932                  0.8791137       -66.36989
1.936                  0.8768287       -66.82002
1.94                   0.8744897       -67.27467
1.944                  0.8720958       -67.73382
1.948                  0.8696463       -68.19752
1.952                  0.8671401       -68.66579
1.956                  0.8645768       -69.13867
1.96                   0.8619554       -69.61615
1.964                  0.8592753       -70.09828
1.968                  0.8565357        -70.5851
1.972                  0.8537359        -71.0766
1.976                  0.8508752       -71.57282
1.98                   0.8479531       -72.07381
1.984                  0.8449688       -72.57957
1.988                  0.8419219       -73.09014
1.992                  0.8388117       -73.60552
1.996                  0.8356376       -74.12577
2                      0.8323994       -74.65092
2.004                  0.8290962       -75.18099
2.008                  0.8257278       -75.71599
2.012                  0.8222937         -76.256
2.016                  0.8187936       -76.80101
2.02                    0.815227       -77.35107
2.024                  0.8115936       -77.90621
2.028                  0.8078933       -78.46648
2.032                  0.8041255        -79.0319
2.036                  0.8002903        -79.6025
2.04                   0.7963872       -80.17836
2.044                  0.7924162       -80.75948
2.048                  0.7883772       -81.34594
2.052                  0.7842702       -81.93775
2.056                  0.7800948       -82.53498
2.06                   0.7758514       -83.13765
2.064                  0.7715396       -83.74586
2.068                    0.76716       -84.35962
2.072                  0.7627123       -84.97901
2.076                  0.7581967       -85.60408
2.08                   0.7536135        -86.2349
2.084                  0.7489628       -86.87152
2.088                  0.7442449       -87.51402
2.092                  0.7394601       -88.16247
2.096                  0.7346087       -88.81692
2.1                    0.7296913       -89.47748
2.104                  0.7247081       -90.14422
2.108                  0.7196596       -90.81721
2.112                  0.7145464       -91.49655
2.116                  0.7093691       -92.18235
2.12                   0.7041282       -92.87468
2.124                  0.6988243       -93.57364
2.128                  0.6934582       -94.27937
2.132                  0.6880309       -94.99196
2.136                  0.6825427       -95.71151
2.14                   0.6769948       -96.43818
2.144                   0.671388       -97.17209
2.148                  0.6657231       -97.91335
2.152                  0.6600013       -98.66215
2.156                  0.6542234       -99.41859
2.16                   0.6483908       -100.1828
2.164                  0.6425044       -100.9551
2.168                  0.6365655       -101.7355
2.172                  0.6305753       -102.5242
2.176                  0.6245352       -103.3215
2.18                   0.6184465       -104.1275
2.184                  0.6123106       -104.9425
2.188                  0.6061289       -105.7665
2.192                  0.5999032          -106.6
2.196                  0.5936348       -107.4431
2.2                    0.5873257       -108.2961
2.204                  0.5809771       -109.1592
2.208                  0.5745913       -110.0327
2.212                  0.5681699        -110.917
2.216                  0.5617149       -111.8123
2.22                   0.5552281       -112.7189
2.224                   0.548712       -113.6372
2.228                  0.5421683       -114.5676
2.232                  0.5355995       -115.5103
2.236                  0.5290076       -116.4659
2.24                   0.5223953       -117.4346
2.244                  0.5157649        -118.417
2.248                   0.509119       -119.4134
2.252                  0.5024601       -120.4244
2.256                  0.4957911       -121.4504
2.26                   0.4891148        -122.492
2.264                  0.4824342       -123.5496
2.268                  0.4757521       -124.6239
2.272                  0.4690718       -125.7154
2.276                  0.4623966       -126.8247
2.28                   0.4557299       -127.9526
2.284                  0.4490751       -129.0995
2.288                   0.442436       -130.2663
2.292                  0.4358161       -131.4536
2.296                  0.4292196       -132.6623
2.3                    0.4226505        -133.893
2.304                  0.4161129       -135.1466
2.308                  0.4096112       -136.4239
2.312                  0.4031501       -137.7258
2.316                   0.396734       -139.0532
2.32                   0.3903681       -140.4069
2.324                  0.3840574       -141.7879
2.328                   0.377807       -143.1971
2.332                  0.3716225       -144.6356
2.336                  0.3655096       -146.1042
2.34                    0.359474       -147.6041
2.344                  0.3535219        -149.136
2.348                  0.3476596       -150.7011
2.352                  0.3418935       -152.3002