! TOUCHSTONE file generated by CST MICROWAVE STUDIO
! Date and time: Sat May 14 10:03:03 2022
! Project name: AppElm_antenne_dipole_Alumina.cst
! Parameters = {L=33; e=0.035; f=2.45e+09; h=1.6; i=1; l1=2; lambda=122.449; ls=30; wl=1.7; ws=80}
! Header version: 2018
! Port assignment regex: !\s*Touchstone port\s*([0-9]+)\s*=\s*(CST MWS port|CST DS port)\s*([0-9]+|Zmin|Zmax)\s*\(\"(.*)\"\)(\s*mode\s*([0-9]+))?.*
! Touchstone port assignment:
! Touchstone port 1 = CST MWS port 1 ("")
# GHz S MA R 50
0                      0.9972051              -0
0.004                  0.9972065     -0.06606691
0.008                  0.9972108      -0.1321422
0.012                   0.997218      -0.1982342
0.016                  0.9972282      -0.2643514
0.02                   0.9972413      -0.3305018
0.024                   0.997257      -0.3966939
0.028                  0.9972756      -0.4629358
0.032                   0.997297      -0.5292353
0.036                  0.9973211      -0.5956007
0.04                   0.9973479      -0.6620395
0.044                  0.9973773      -0.7285597
0.048                  0.9974093      -0.7951686
0.052                  0.9974436      -0.8618736
0.056                  0.9974805      -0.9286821
0.06                   0.9975196      -0.9956008
0.064                  0.9975611       -1.062637
0.068                  0.9976046       -1.129796
0.072                  0.9976504       -1.197086
0.076                   0.997698       -1.264512
0.08                   0.9977475       -1.332079
0.084                  0.9977989       -1.399795
0.088                  0.9978519       -1.467663
0.092                  0.9979066       -1.535689
0.096                  0.9979626       -1.603878
0.1                    0.9980199       -1.672235
0.104                  0.9980785       -1.740762
0.108                  0.9981383       -1.809465
0.112                  0.9981988       -1.878346
0.116                  0.9982605       -1.947409
0.12                   0.9983227       -2.016657
0.124                  0.9983855       -2.086093
0.128                  0.9984489       -2.155718
0.132                  0.9985126       -2.225534
0.136                  0.9985763       -2.295543
0.14                   0.9986402       -2.365747
0.144                  0.9987041       -2.436144
0.148                  0.9987678       -2.506738
0.152                   0.998831       -2.577527
0.156                  0.9988939       -2.648511
0.16                   0.9989561       -2.719691
0.164                  0.9990177       -2.791064
0.168                  0.9990783        -2.86263
0.172                   0.999138       -2.934387
0.176                  0.9991966       -3.006334
0.18                    0.999254       -3.078468
0.184                  0.9993099       -3.150787
0.188                  0.9993644       -3.223287
0.192                  0.9994172       -3.295967
0.196                  0.9994685       -3.368822
0.2                    0.9995179       -3.441849
0.204                  0.9995655       -3.515044
0.208                  0.9996109       -3.588403
0.212                  0.9996543        -3.66192
0.216                  0.9996955       -3.735593
0.22                   0.9997344       -3.809415
0.224                  0.9997709       -3.883382
0.228                   0.999805       -3.957487
0.232                  0.9998364       -4.031727
0.236                  0.9998653       -4.106094
0.24                   0.9998917       -4.180583
0.244                  0.9999151       -4.255188
0.248                  0.9999359       -4.329902
0.252                  0.9999538        -4.40472
0.256                  0.9999689       -4.479635
0.26                    0.999981       -4.554639
0.264                  0.9999902       -4.629728
0.268                  0.9999963       -4.704894
0.272                  0.9999997       -4.780129
0.276                          1       -4.855427
0.28                   0.9999972       -4.930782
0.284                  0.9999915       -5.006187
0.288                  0.9999827       -5.081634
0.292                   0.999971       -5.157117
0.296                  0.9999562       -5.232629
0.3                    0.9999386       -5.308163
0.304                  0.9999182       -5.383713
0.308                  0.9998947       -5.459272
0.312                  0.9998684       -5.534832
0.316                  0.9998394        -5.61039
0.32                   0.9998076       -5.685936
0.324                   0.999773       -5.761467
0.328                  0.9997359       -5.836975
0.332                  0.9996963       -5.912455
0.336                  0.9996542       -5.987902
0.34                   0.9996096       -6.063308
0.344                  0.9995628       -6.138671
0.348                  0.9995138       -6.213984
0.352                  0.9994626       -6.289243
0.356                  0.9994094       -6.364443
0.36                   0.9993543        -6.43958
0.364                  0.9992974        -6.51465
0.368                  0.9992387       -6.589649
0.372                  0.9991785       -6.664574
0.376                  0.9991166       -6.739422
0.38                   0.9990536        -6.81419
0.384                  0.9989892       -6.888876
0.388                  0.9989238       -6.963476
0.392                  0.9988575       -7.037991
0.396                  0.9987902       -7.112416
0.4                    0.9987223       -7.186752
0.404                  0.9986537       -7.260999
0.408                  0.9985848       -7.335156
0.412                  0.9985157       -7.409221
0.416                  0.9984462       -7.483198
0.42                   0.9983767       -7.557083
0.424                  0.9983073       -7.630881
0.428                  0.9982382        -7.70459
0.432                  0.9981695       -7.778215
0.436                  0.9981013       -7.851756
0.44                   0.9980338       -7.925217
0.444                  0.9979671         -7.9986
0.448                  0.9979013       -8.071906
0.452                  0.9978366       -8.145143
0.456                  0.9977731       -8.218312
0.46                   0.9977109       -8.291417
0.464                  0.9976502       -8.364465
0.468                  0.9975911       -8.437459
0.472                  0.9975336       -8.510404
0.476                  0.9974779       -8.583309
0.48                   0.9974243       -8.656175
0.484                  0.9973726        -8.72901
0.488                   0.997323       -8.801823
0.492                  0.9972757        -8.87462
0.496                  0.9972308       -8.947404
0.5                    0.9971883       -9.020189
0.504                  0.9971483       -9.092975
0.508                  0.9971109       -9.165777
0.512                  0.9970762       -9.238599
0.516                  0.9970441       -9.311451
0.52                    0.997015        -9.38434
0.524                  0.9969888       -9.457276
0.528                  0.9969655       -9.530268
0.532                  0.9969451       -9.603324
0.536                  0.9969276       -9.676453
0.54                   0.9969134       -9.749666
0.544                  0.9969021       -9.822971
0.548                   0.996894       -9.896378
0.552                  0.9968889       -9.969896
0.556                  0.9968871       -10.04354
0.56                   0.9968883       -10.11731
0.564                  0.9968927       -10.19121
0.568                  0.9969002       -10.26527
0.572                  0.9969108       -10.33949
0.576                  0.9969244       -10.41388
0.58                   0.9969411       -10.48845
0.584                  0.9969608       -10.56321
0.588                  0.9969834       -10.63816
0.592                   0.997009       -10.71332
0.596                  0.9970374        -10.7887
0.6                    0.9970686       -10.86431
0.604                  0.9971024       -10.94014
0.608                  0.9971389       -11.01623
0.612                  0.9971781       -11.09256
0.616                  0.9972196       -11.16915
0.62                   0.9972636       -11.24602
0.624                  0.9973099       -11.32315
0.628                  0.9973583       -11.40058
0.632                  0.9974088       -11.47829
0.636                  0.9974612       -11.55631
0.64                   0.9975154       -11.63463
0.644                  0.9975713       -11.71326
0.648                   0.997629       -11.79221
0.652                  0.9976879       -11.87149
0.656                  0.9977483       -11.95109
0.66                   0.9978097       -12.03104
0.664                  0.9978722       -12.11132
0.668                  0.9979356       -12.19195
0.672                  0.9979998       -12.27293
0.676                  0.9980645       -12.35426
0.68                   0.9981297       -12.43596
0.684                  0.9981951       -12.51801
0.688                  0.9982608       -12.60042
0.692                  0.9983262       -12.68321
0.696                  0.9983916       -12.76636
0.7                    0.9984565       -12.84988
0.704                  0.9985211       -12.93377
0.708                  0.9985849       -13.01803
0.712                  0.9986481       -13.10266
0.716                    0.99871       -13.18767
0.72                   0.9987709       -13.27305
0.724                  0.9988305       -13.35881
0.728                  0.9988886       -13.44493
0.732                  0.9989452       -13.53142
0.736                  0.9989998       -13.61828
0.74                   0.9990528       -13.70551
0.744                  0.9991035       -13.79309
0.748                  0.9991522       -13.88104
0.752                  0.9991986       -13.96934
0.756                  0.9992426         -14.058
0.76                   0.9992838       -14.14701
0.764                  0.9993223       -14.23636
0.768                  0.9993581       -14.32605
0.772                  0.9993909       -14.41608
0.776                  0.9994205       -14.50643
0.78                    0.999447       -14.59712
0.784                  0.9994702       -14.68812
0.788                  0.9994902       -14.77944
0.792                  0.9995065       -14.87106
0.796                  0.9995194       -14.96299
0.8                    0.9995286       -15.05521
0.804                  0.9995341       -15.14772
0.808                   0.999536       -15.24051
0.812                  0.9995339       -15.33358
0.816                  0.9995279       -15.42691
0.82                   0.9995181        -15.5205
0.824                  0.9995043       -15.61434
0.828                  0.9994865       -15.70844
0.832                  0.9994648       -15.80277
0.836                  0.9994389       -15.89732
0.84                   0.9994091       -15.99211
0.844                  0.9993751       -16.08711
0.848                  0.9993372       -16.18231
0.852                  0.9992953       -16.27772
0.856                  0.9992495       -16.37332
0.86                   0.9991994        -16.4691
0.864                  0.9991456       -16.56507
0.868                  0.9990878        -16.6612
0.872                  0.9990263        -16.7575
0.876                  0.9989611       -16.85396
0.88                   0.9988921       -16.95056
0.884                  0.9988192       -17.04731
0.888                  0.9987432        -17.1442
0.892                  0.9986634       -17.24122
0.896                  0.9985803       -17.33836
0.9                    0.9984938       -17.43563
0.904                  0.9984043       -17.53301
0.908                  0.9983116        -17.6305
0.912                   0.998216        -17.7281
0.916                  0.9981176        -17.8258
0.92                   0.9980164       -17.92359
0.924                  0.9979127       -18.02147
0.928                  0.9978067       -18.11945
0.932                  0.9976981       -18.21751
0.936                  0.9975876       -18.31566
0.94                    0.997475       -18.41389
0.944                  0.9973605        -18.5122
0.948                  0.9972444       -18.61059
0.952                  0.9971268       -18.70905
0.956                  0.9970077       -18.80759
0.96                   0.9968876       -18.90622
0.964                  0.9967664       -19.00492
0.968                  0.9966444        -19.1037
0.972                  0.9965216       -19.20256
0.976                  0.9963983        -19.3015
0.98                   0.9962748       -19.40053
0.984                   0.996151       -19.49965
0.988                  0.9960273       -19.59886
0.992                  0.9959037       -19.69816
0.996                  0.9957805       -19.79757
1                      0.9956579       -19.89708
1.004                  0.9955359       -19.99671
1.008                  0.9954148       -20.09643
1.012                  0.9952948       -20.19631
1.016                  0.9951758       -20.29631
1.02                   0.9950583       -20.39644
1.024                  0.9949423        -20.4967
1.028                  0.9948279       -20.59713
1.032                  0.9947154       -20.69776
1.036                  0.9946048       -20.79852
1.04                   0.9944963       -20.89947
1.044                  0.9943901       -21.00061
1.048                  0.9942862       -21.10197
1.052                  0.9941848       -21.20352
1.056                   0.994086       -21.30534
1.06                     0.99399       -21.40736
1.064                  0.9938966       -21.50965
1.068                  0.9938063       -21.61218
1.072                  0.9937189       -21.71499
1.076                  0.9936346       -21.81813
1.08                   0.9935535       -21.92154
1.084                  0.9934755       -22.02527
1.088                   0.993401       -22.12934
1.092                  0.9933297       -22.23376
1.096                  0.9932616       -22.33853
1.1                    0.9931972       -22.44369
1.104                  0.9931361       -22.54926
1.108                  0.9930784       -22.65518
1.112                  0.9930242       -22.76157
1.116                  0.9929734       -22.86839
1.12                   0.9929261       -22.97565
1.124                   0.992882       -23.08341
1.128                  0.9928414       -23.19162
1.132                  0.9928041       -23.30034
1.136                  0.9927701       -23.40959
1.14                   0.9927393       -23.51937
1.144                  0.9927116       -23.62969
1.148                  0.9926871       -23.74059
1.152                  0.9926654       -23.85206
1.156                  0.9926467       -23.96412
1.16                   0.9926306       -24.07681
1.164                  0.9926172       -24.19011
1.168                  0.9926064       -24.30406
1.172                   0.992598       -24.41866
1.176                  0.9925916       -24.53394
1.18                   0.9925875        -24.6499
1.184                  0.9925851       -24.76656
1.188                  0.9925845       -24.88394
1.192                  0.9925855       -25.00205
1.196                  0.9925879       -25.12089
1.2                    0.9925916       -25.24049
1.204                  0.9925962       -25.36085
1.208                  0.9926014         -25.482
1.212                  0.9926075       -25.60393
1.216                  0.9926138       -25.72666
1.22                     0.99262       -25.85021
1.224                  0.9926264       -25.97457
1.228                  0.9926323       -26.09978
1.232                  0.9926377       -26.22582
1.236                  0.9926422       -26.35271
1.24                   0.9926457       -26.48047
1.244                  0.9926478       -26.60909
1.248                  0.9926483       -26.73859
1.252                  0.9926471       -26.86897
1.256                  0.9926437       -27.00023
1.26                   0.9926378        -27.1324
1.264                  0.9926295       -27.26546
1.268                  0.9926183       -27.39943
1.272                  0.9926039       -27.53432
1.276                  0.9925862       -27.67011
1.28                   0.9925647       -27.80682
1.284                  0.9925392       -27.94445
1.288                  0.9925096       -28.08301
1.292                  0.9924756       -28.22249
1.296                  0.9924369        -28.3629
1.3                    0.9923932       -28.50423
1.304                  0.9923443       -28.64649
1.308                  0.9922899       -28.78968
1.312                  0.9922298        -28.9338
1.316                  0.9921637       -29.07884
1.32                   0.9920915       -29.22481
1.324                  0.9920129        -29.3717
1.328                  0.9919276       -29.51951
1.332                  0.9918355       -29.66824
1.336                  0.9917363       -29.81788
1.34                   0.9916299       -29.96843
1.344                  0.9915159       -30.11989
1.348                  0.9913943       -30.27226
1.352                   0.991265       -30.42553
1.356                  0.9911276       -30.57969
1.36                   0.9909821       -30.73474
1.364                  0.9908283       -30.89067
1.368                  0.9906659       -31.04749
1.372                   0.990495       -31.20518
1.376                  0.9903153       -31.36373
1.38                   0.9901267       -31.52315
1.384                  0.9899291       -31.68342
1.388                  0.9897225       -31.84455
1.392                  0.9895068       -32.00652
1.396                  0.9892817       -32.16933
1.4                    0.9890473       -32.33296
1.404                  0.9888037       -32.49742
1.408                  0.9885506       -32.66271
1.412                   0.988288        -32.8288
1.416                   0.988016        -32.9957
1.42                   0.9877343       -33.16341
1.424                  0.9874432       -33.33192
1.428                  0.9871426       -33.50121
1.432                  0.9868326       -33.67128
1.436                   0.986513       -33.84215
1.44                   0.9861842       -34.01378
1.444                  0.9858458        -34.1862
1.448                   0.985498       -34.35938
1.452                   0.985141       -34.53332
1.456                  0.9847749       -34.70803
1.46                   0.9843997       -34.88349
1.464                  0.9840153       -35.05972
1.468                  0.9836221        -35.2367
1.472                  0.9832201       -35.41444
1.476                  0.9828094       -35.59293
1.48                   0.9823902       -35.77218
1.484                  0.9819625       -35.95218
1.488                  0.9815265       -36.13295
1.492                  0.9810823       -36.31448
1.496                  0.9806302       -36.49677
1.5                    0.9801704       -36.67982
1.504                  0.9797026       -36.86365
1.508                  0.9792275       -37.04825
1.512                  0.9787451       -37.23364
1.516                  0.9782555       -37.41982
1.52                   0.9777589       -37.60679
1.524                  0.9772555       -37.79457
1.528                  0.9767454       -37.98318
1.532                   0.976229       -38.17259
1.536                  0.9757065       -38.36286
1.54                   0.9751777       -38.55398
1.544                  0.9746433       -38.74596
1.548                  0.9741029       -38.93882
1.552                  0.9735572       -39.13257
1.556                  0.9730062       -39.32723
1.56                     0.97245       -39.52282
1.564                  0.9718888       -39.71936
1.568                  0.9713229       -39.91686
1.572                  0.9707523       -40.11536
1.576                  0.9701773       -40.31486
1.58                   0.9695979       -40.51538
1.584                  0.9690143       -40.71697
1.588                  0.9684268       -40.91963
1.592                  0.9678352        -41.1234
1.596                  0.9672398       -41.32831
1.6                    0.9666408       -41.53436
1.604                  0.9660382       -41.74161
1.608                  0.9654322       -41.95007
1.612                  0.9648227       -42.15979
1.616                  0.9642098       -42.37078
1.62                   0.9635936       -42.58309
1.624                  0.9629742       -42.79675
1.628                  0.9623514       -43.01178
1.632                  0.9617254       -43.22823
1.636                  0.9610962       -43.44614
1.64                   0.9604636       -43.66553
1.644                  0.9598276       -43.88646
1.648                  0.9591884       -44.10895
1.652                  0.9585455       -44.33304
1.656                  0.9578991       -44.55879
1.66                   0.9572491       -44.78622
1.664                  0.9565952       -45.01538
1.668                  0.9559372       -45.24632
1.672                  0.9552751       -45.47906
1.676                  0.9546087       -45.71367
1.68                   0.9539376       -45.95019
1.684                  0.9532619       -46.18864
1.688                  0.9525809        -46.4291
1.692                  0.9518945       -46.67159
1.696                  0.9512025       -46.91617
1.7                    0.9505045       -47.16287
1.704                  0.9498002       -47.41175
1.708                  0.9490891       -47.66287
1.712                   0.948371       -47.91624
1.716                  0.9476454       -48.17194
1.72                   0.9469118       -48.43001
1.724                  0.9461697       -48.69049
1.728                  0.9454188       -48.95344
1.732                  0.9446585       -49.21888
1.736                  0.9438882        -49.4869
1.74                   0.9431075       -49.75751
1.744                  0.9423156       -50.03078
1.748                  0.9415122       -50.30675
1.752                  0.9406966       -50.58547
1.756                  0.9398681       -50.86698
1.76                   0.9390261       -51.15134
1.764                  0.9381698       -51.43858
1.768                  0.9372986       -51.72876
1.772                  0.9364119       -52.02193
1.776                  0.9355088       -52.31811
1.78                   0.9345886       -52.61738
1.784                  0.9336506       -52.91975
1.788                  0.9326939        -53.2253
1.792                  0.9317178       -53.53405
1.796                  0.9307215       -53.84605
1.8                    0.9297041       -54.16135
1.804                  0.9286648       -54.47997
1.808                  0.9276027       -54.80197
1.812                  0.9265169       -55.12741
1.816                  0.9254066       -55.45629
1.82                   0.9242708       -55.78869
1.824                  0.9231088       -56.12461
1.828                  0.9219194       -56.46412
1.832                   0.920702       -56.80724
1.836                  0.9194554       -57.15402
1.84                   0.9181787       -57.50449
1.844                  0.9168709        -57.8587
1.848                  0.9155314       -58.21666
1.852                  0.9141587       -58.57844
1.856                  0.9127522       -58.94405
1.86                   0.9113109       -59.31351
1.864                  0.9098338       -59.68687
1.868                  0.9083199       -60.06419
1.872                  0.9067681       -60.44546
1.876                  0.9051778       -60.83074
1.88                   0.9035476       -61.22003
1.884                  0.9018768        -61.6134
1.888                  0.9001644       -62.01085
1.892                  0.8984093       -62.41242
1.896                  0.8966107       -62.81813
1.9                    0.8947677       -63.22802
1.904                  0.8928793       -63.64211
1.908                  0.8909445       -64.06044
1.912                  0.8889623       -64.48302
1.916                   0.886932       -64.90989
1.92                   0.8848526       -65.34107
1.924                  0.8827233       -65.77656
1.928                  0.8805431       -66.21644
1.932                   0.878311        -66.6607
1.936                  0.8760265       -67.10938
1.94                   0.8736886       -67.56248
1.944                  0.8712964       -68.02005
1.948                  0.8688491       -68.48211
1.952                  0.8663462       -68.94867
1.956                  0.8637866       -69.41977
1.96                   0.8611698       -69.89544
1.964                  0.8584949       -70.37568
1.968                  0.8557612       -70.86054
1.972                  0.8529682       -71.35002
1.976                  0.8501151       -71.84418
1.98                   0.8472013       -72.34302
1.984                  0.8442262       -72.84657
1.988                  0.8411892       -73.35487
1.992                  0.8380899       -73.86793
1.996                  0.8349274       -74.38577
2                      0.8317016       -74.90844
2.004                  0.8284117       -75.43598
2.008                  0.8250576       -75.96838
2.012                  0.8216386        -76.5057
2.016                  0.8181543       -77.04796
2.02                   0.8146046       -77.59521
2.024                  0.8109889       -78.14745
2.028                  0.8073071       -78.70474
2.032                  0.8035588       -79.26711
2.036                  0.7997441       -79.83462
2.04                   0.7958622       -80.40726
2.044                  0.7919136       -80.98511
2.048                  0.7878977       -81.56819
2.052                  0.7838147       -82.15656
2.056                  0.7796645       -82.75026
2.06                   0.7754468       -83.34933
2.064                  0.7711621       -83.95383
2.068                    0.76681       -84.56382
2.072                  0.7623909       -85.17931
2.076                  0.7579049       -85.80041
2.08                    0.753352       -86.42717
2.084                  0.7487325       -87.05962
2.088                  0.7440468       -87.69785
2.092                  0.7392951       -88.34192
2.096                  0.7344776       -88.99191
2.1                    0.7295949       -89.64788
2.104                  0.7246473       -90.30992
2.108                  0.7196352        -90.9781
2.112                  0.7145592       -91.65253
2.116                  0.7094199       -92.33327
2.12                   0.7042177       -93.02044
2.124                  0.6989535       -93.71411
2.128                  0.6936277        -94.4144
2.132                  0.6882412       -95.12143
2.136                  0.6827948       -95.83528
2.14                   0.6772893        -96.5561
2.144                  0.6717253       -97.28401
2.148                  0.6661042       -98.01914
2.152                  0.6604265       -98.76162
2.156                  0.6546935       -99.51158
2.16                   0.6489061       -100.2692
2.164                  0.6430654       -101.0346
2.168                  0.6371728        -101.808
2.172                  0.6312293       -102.5896
2.176                  0.6252363       -103.3795
2.18                    0.619195       -104.1779
2.184                  0.6131068        -104.985
2.188                  0.6069731        -105.801
2.192                  0.6007955       -106.6262
2.196                  0.5945755       -107.4608
2.2                    0.5883147        -108.305
2.204                  0.5820148       -109.1591
2.208                  0.5756774       -110.0234
2.212                  0.5693045       -110.8981
2.216                  0.5628978       -111.7835
2.22                   0.5564592       -112.6799
2.224                  0.5499909       -113.5877
2.228                  0.5434948       -114.5073
2.232                   0.536973       -115.4388
2.236                   0.530428       -116.3828
2.24                   0.5238617       -117.3396
2.244                  0.5172768       -118.3097
2.248                  0.5106756       -119.2933
2.252                  0.5040607       -120.2911
2.256                  0.4974346       -121.3035
2.26                   0.4908002       -122.3309
2.264                  0.4841603        -123.374
2.268                  0.4775178       -124.4331
2.272                  0.4708756       -125.5089
2.276                  0.4642371        -126.602
2.28                   0.4576053        -127.713
2.284                  0.4509837       -128.8425
2.288                  0.4443757       -129.9911
2.292                  0.4377851       -131.1597
2.296                  0.4312155       -132.3489
2.3                    0.4246708       -133.5594
2.304                   0.418155        -134.792
2.308                  0.4116724       -136.0475
2.312                  0.4052273       -137.3269
2.316                  0.3988243       -138.6308
2.32                   0.3924678       -139.9602
2.324                   0.386163       -141.3161
2.328                  0.3799146       -142.6992
2.332                   0.373728       -144.1106
2.336                  0.3676088       -145.5513
2.34                   0.3615621       -147.0221
2.344                  0.3555942       -148.5241
2.348                  0.3497109       -150.0582
2.352                  0.3439183       -151.6254