! TOUCHSTONE file generated by CST MICROWAVE STUDIO
! Date and time: Tue Jun 14 11:50:58 2022
! Project name: AppElm_antenne_patch_FR4.cst
! Parameters = {L=36; W=58.5; e=0.035; h=1.6; lambda=0.190476; ls=120; w0=2.54; w1=0.847; ws=120; y0=18; y1=23.8}
! Header version: 2018
! Port assignment regex: !\s*Touchstone port\s*([0-9]+)\s*=\s*(CST MWS port|CST DS port)\s*([0-9]+|Zmin|Zmax)\s*\(\"(.*)\"\)(\s*mode\s*([0-9]+))?.*
! Touchstone port assignment:
! Touchstone port 1 = CST MWS port 1 ("")
# GHz S MA R 50
0                      0.9941917              -0
0.004                  0.9943825       -8.277523
0.008                  0.9949262       -16.49959
0.012                  0.9957424       -24.61263
0.016                  0.9967105       -32.56675
0.02                   0.9976895       -40.31711
0.024                  0.9985379       -47.82505
0.028                  0.9991368       -55.05871
0.032                  0.9994062       -61.99348
0.036                  0.9993166       -68.61211
0.04                    0.998892       -74.90466
0.044                  0.9982056       -80.86827
0.048                   0.997368       -86.50679
0.052                  0.9965093       -91.83015
0.056                  0.9957588       -96.85354
0.06                   0.9952258       -101.5963
0.064                  0.9949823       -106.0803
0.068                  0.9950532       -110.3287
0.072                  0.9954137       -114.3644
0.076                  0.9959954       -118.2084
0.08                   0.9966973       -121.8789
0.084                  0.9974045       -125.3906
0.088                   0.998006        -128.755
0.092                  0.9984124       -131.9801
0.096                   0.998569       -135.0716
0.1                    0.9984634       -138.0337
0.104                  0.9981259       -140.8699
0.108                  0.9976226       -143.5846
0.112                  0.9970449       -146.1831
0.116                  0.9964918       -148.6723
0.12                   0.9960546       -151.0611
0.124                  0.9958024       -153.3594
0.128                  0.9957703       -155.5779
0.132                  0.9959558       -157.7272
0.136                  0.9963197       -159.8168
0.14                   0.9967941       -161.8543
0.144                  0.9972951       -163.8453
0.148                  0.9977373       -165.7929
0.152                  0.9980484       -167.6979
0.156                    0.99818       -169.5597
0.16                    0.998116       -171.3765
0.164                  0.9978741       -173.1465
0.168                  0.9975014       -174.8684
0.172                  0.9970658       -176.5425
0.176                   0.996644       -178.1703
0.18                   0.9963083       -179.7552
0.184                  0.9961139        178.6981
0.188                  0.9960904        177.1839
0.192                  0.9962367        175.6966
0.196                  0.9965229        174.2308
0.2                    0.9968951        172.7825
0.204                  0.9972864        171.3493
0.208                  0.9976279        169.9304
0.212                  0.9978615         168.527
0.216                  0.9979491         167.141
0.22                   0.9978786        165.7753
0.224                   0.997666        164.4327
0.228                  0.9973514        163.1152
0.232                  0.9969916        161.8238
0.236                  0.9966507         160.558
0.24                   0.9963877        159.3157
0.244                  0.9962472        158.0938
0.248                  0.9962513        156.8884
0.252                   0.996396        155.6952
0.256                  0.9966533        154.5106
0.26                   0.9969756         153.332
0.264                   0.997305        152.1581
0.268                  0.9975829        150.9891
0.272                  0.9977613        149.8263
0.276                  0.9978103        148.6723
0.28                   0.9977234          147.53
0.284                  0.9975173         146.402
0.288                  0.9972306        145.2905
0.292                  0.9969143        144.1965
0.296                  0.9966248        143.1197
0.3                    0.9964125        142.0582
0.304                  0.9963135        141.0096
0.308                  0.9963436        139.9705
0.312                  0.9964956        138.9375
0.316                  0.9967406        137.9077
0.32                   0.9970339        136.8792
0.324                  0.9973225        135.8513
0.328                  0.9975554        134.8244
0.332                  0.9976916        133.8005
0.336                  0.9977081        132.7819
0.34                   0.9976031        131.7714
0.344                  0.9973963        130.7717
0.348                  0.9971251        129.7846
0.352                  0.9968381        128.8109
0.356                  0.9965863        127.8501
0.36                   0.9964141        126.9007
0.364                   0.996351        125.9601
0.368                  0.9964072        125.0254
0.372                  0.9965716        124.0936
0.376                  0.9968142        123.1623
0.38                   0.9970908          122.23
0.384                  0.9973526        121.2964
0.388                  0.9975527        120.3623
0.392                  0.9976562        119.4296
0.396                  0.9976461        118.5008
0.4                    0.9975245        117.5786
0.404                   0.997314        116.6654
0.408                  0.9970528        115.7628
0.412                  0.9967877        114.8713
0.416                  0.9965658        113.9904
0.42                   0.9964266        113.1184
0.424                  0.9963944        112.2528
0.428                  0.9964743        111.3908
0.432                  0.9966512        110.5298
0.436                  0.9968934        109.6677
0.44                   0.9971571        108.8033
0.444                  0.9973956        107.9365
0.448                  0.9975662        107.0687
0.452                  0.9976389        106.2016
0.456                  0.9976013        105.3379
0.46                   0.9974603          104.48
0.464                  0.9972415        103.6303
0.468                  0.9969839          102.79
0.472                   0.996733        101.9595
0.476                  0.9965337        101.1379
0.48                   0.9964209        100.3236
0.484                   0.996414        99.51401
0.488                  0.9965137        98.70646
0.492                  0.9967014        97.89848
0.496                  0.9969432        97.08828
0.5                    0.9971952          96.275
0.504                  0.9974125        95.45891
0.508                  0.9975559        94.64134
0.512                  0.9975998        93.82436
0.516                  0.9975364        93.01052
0.52                   0.9973771        92.20228
0.524                  0.9971498        91.40163
0.528                   0.996895         90.6097
0.532                  0.9966581        89.82656
0.536                  0.9964807        89.05122
0.54                   0.9963943        88.28175
0.544                  0.9964139        87.51566
0.548                  0.9965352        86.75035
0.552                  0.9967366        85.98348
0.556                  0.9969817        85.21352
0.56                   0.9972263        84.43989
0.564                  0.9974268        83.66311
0.568                  0.9975474        82.88471
0.572                  0.9975664        82.10687
0.576                  0.9974804        81.33214
0.58                   0.9973049        80.56288
0.584                   0.997071        79.80092
0.588                  0.9968202        79.04713
0.592                  0.9965972        78.30134
0.596                  0.9964416        77.56234
0.6                     0.996381        76.82808
0.604                  0.9964262        76.09602
0.608                  0.9965685        75.36362
0.612                  0.9967825        74.62873
0.616                  0.9970299        73.89001
0.62                   0.9972657        73.14718
0.624                  0.9974484        72.40097
0.628                  0.9975446        71.65315
0.632                   0.997537        70.90598
0.636                  0.9974266        70.16201
0.64                   0.9972326        69.42353
0.644                  0.9969894        68.69212
0.648                  0.9967397         67.9685
0.652                  0.9965277        67.25222
0.656                   0.996391        66.54184
0.66                   0.9963534        65.83521
0.664                  0.9964212         65.1297
0.668                  0.9965819        64.42284
0.672                  0.9968066        63.71264
0.676                  0.9970543        62.99801
0.68                   0.9972805         62.2789
0.684                  0.9974443         61.5563
0.688                   0.997516         60.8321
0.692                  0.9974819        60.10876
0.696                  0.9973478        59.38876
0.7                    0.9971367         58.6743
0.704                  0.9968857         57.9668
0.708                   0.996639        57.26669
0.712                  0.9964401        56.57329
0.716                  0.9963246        55.88496
0.72                    0.996312        55.19937
0.724                  0.9964051        54.51389
0.728                  0.9965865        53.82609
0.732                  0.9968238        53.13415
0.736                  0.9970742        52.43717
0.74                   0.9972926        51.73539
0.744                  0.9974401        51.03002
0.748                  0.9974893        50.32316
0.752                  0.9974313        49.61732
0.756                  0.9972755        48.91502
0.76                   0.9970494        48.21832
0.764                  0.9967925        47.52845
0.768                  0.9965505        46.84559
0.772                  0.9963663        46.16884
0.776                  0.9962723        45.49634
0.78                   0.9962853        44.82561
0.784                  0.9964028          44.154
0.788                  0.9966037        43.47913
0.792                  0.9968518        42.79936
0.796                   0.997103        42.11403
0.8                    0.9973114        41.42361
0.804                  0.9974397        40.72958
0.808                  0.9974641         40.0342
0.812                  0.9973794        39.34006
0.816                     0.9972        38.64968
0.82                   0.9969569          37.965
0.824                  0.9966925        37.28707
0.828                  0.9964537        36.61581
0.832                  0.9962821        35.95006
0.836                  0.9962082        35.28775
0.84                   0.9962449        34.62629
0.844                  0.9963853        33.96298
0.848                  0.9966042        33.29551
0.852                  0.9968619        32.62243
0.856                  0.9971122        31.94329
0.86                   0.9973098        31.25881
0.864                  0.9974186        30.57073
0.868                  0.9974184        29.88145
0.872                  0.9973083        29.19367
0.876                  0.9971067        28.50987
0.88                   0.9968487        27.83186
0.884                  0.9965795        27.16047
0.888                  0.9963464        26.49541
0.892                  0.9961908        25.83524
0.896                  0.9961401        25.17769
0.9                    0.9962034        24.52003
0.904                  0.9963695        23.85953
0.908                  0.9966086        23.19399
0.912                  0.9968782        22.52209
0.916                  0.9971298        21.84365
0.92                   0.9973182        21.15963
0.924                  0.9974093          20.472
0.928                  0.9973859        19.78334
0.932                  0.9972515        19.09642
0.936                  0.9970289        18.41369
0.94                   0.9967568        17.73684
0.944                  0.9964832        17.06651
0.948                  0.9962563        16.40212
0.952                  0.9961163        15.74201
0.956                  0.9960879         15.0837
0.96                   0.9961765        14.42434
0.964                  0.9963663        13.76118
0.968                  0.9966233        13.09209
0.972                  0.9969017        12.41596
0.976                  0.9971515        11.73282
0.98                   0.9973274         11.0439
0.984                  0.9973974         10.3514
0.988                  0.9973477        9.658066
0.992                  0.9971858        8.966751
0.996                  0.9969391        8.279869
1                      0.9966504        7.598986
1.004                  0.9963699        6.924517
1.008                  0.9961468        6.255653
1.012                  0.9960205        5.590474
1.016                   0.996013        4.926296
1.02                   0.9961257         4.26013
1.024                  0.9963385        3.589218
1.028                  0.9966133        2.911516
1.032                  0.9969009        2.226062
1.036                  0.9971496        1.533141
1.04                   0.9973144       0.8342358
1.044                  0.9973647       0.1317633
1.048                  0.9972905      -0.5713515
1.052                  0.9971033       -1.272192
1.056                  0.9968349       -1.968369
1.06                    0.996532       -2.658447
1.064                  0.9962472       -3.342218
1.068                  0.9960309       -4.020744
1.072                  0.9959213       -4.696195
1.076                  0.9959376       -5.371463
1.08                   0.9960776       -6.049667
1.084                  0.9963167       -6.733595
1.088                  0.9966125       -7.425197
1.092                  0.9969123        -8.12532
1.096                  0.9971628       -8.833336
1.1                    0.9973185       -9.547638
1.104                   0.997351       -10.26546
1.108                  0.9972529       -10.98381
1.112                  0.9970405       -11.69958
1.116                  0.9967496       -12.41047
1.12                   0.9964307       -13.11513
1.124                  0.9961393       -13.81353
1.128                  0.9959267       -14.50702
1.132                  0.9958305       -15.19799
1.136                  0.9958679       -15.88955
1.14                   0.9960326       -16.58496
1.144                  0.9962954       -17.28704
1.148                    0.99661       -17.99768
1.152                  0.9969203       -18.71753
1.156                  0.9971707       -19.44583
1.16                   0.9973156       -20.18059
1.164                  0.9973278       -20.91893
1.168                  0.9972033       -21.65754
1.172                  0.9969623       -22.39332
1.176                  0.9966452        -23.1239
1.18                   0.9963064       -23.84807
1.184                  0.9960047       -24.56599
1.188                  0.9957929       -25.27921
1.192                  0.9957081       -25.99041
1.196                  0.9957657       -26.70292
1.2                    0.9959554       -27.42016
1.204                  0.9962443       -28.14503
1.208                  0.9965812       -28.87937
1.212                  0.9969064       -29.62369
1.216                  0.9971616       -30.37703
1.22                   0.9973007       -31.13712
1.224                  0.9972974       -31.90085
1.228                  0.9971502       -32.66469
1.232                  0.9968831       -33.42542
1.236                  0.9965411       -34.18064
1.24                   0.9961831       -34.92919
1.244                  0.9958713       -35.67141
1.248                  0.9956602       -36.40911
1.252                  0.9955874        -37.1452
1.256                  0.9956663       -37.88328
1.26                   0.9958839       -38.62695
1.264                  0.9962025       -39.37921
1.268                  0.9965662        -40.1419
1.272                   0.996911        -40.9154
1.276                  0.9971757       -41.69855
1.28                   0.9973122       -42.48884
1.284                  0.9972944       -43.28284
1.288                  0.9971234       -44.07682
1.292                  0.9968266       -44.86733
1.296                  0.9964538       -45.65191
1.3                    0.9960687       -46.42942
1.304                  0.9957377       -47.20036
1.308                  0.9955184        -47.9667
1.312                  0.9954493        -48.7317
1.316                  0.9955435       -49.49918
1.32                   0.9957846       -50.27302
1.324                  0.9961309       -51.05635
1.328                   0.996522       -51.85106
1.332                  0.9968882       -52.65746
1.336                  0.9971642       -53.47421
1.34                   0.9972994       -54.29852
1.344                  0.9972675       -55.12667
1.348                  0.9970707        -55.9546
1.352                  0.9967399       -56.77865
1.356                  0.9963299       -57.59617
1.36                   0.9959102       -58.40602
1.364                  0.9955524       -59.20879
1.368                  0.9953183       -60.00669
1.372                  0.9952494       -60.80322
1.376                  0.9953584       -61.60261
1.38                   0.9956269       -62.40902
1.384                  0.9960089       -63.22584
1.388                   0.996438       -64.05508
1.392                  0.9968389       -64.89702
1.396                  0.9971402       -65.75017
1.4                    0.9972872        -66.6115
1.404                   0.997251       -67.47689
1.408                  0.9970347       -68.34192
1.412                  0.9966722       -69.20261
1.416                  0.9962235       -70.05603
1.42                   0.9957643       -70.90092
1.424                  0.9953733       -71.73791
1.428                  0.9951185       -72.56943
1.432                  0.9950454        -73.3993
1.436                  0.9951681       -74.23216
1.44                   0.9954673       -75.07257
1.444                  0.9958923        -75.9243
1.448                  0.9963702       -76.78957
1.452                  0.9968177       -77.66875
1.456                  0.9971556       -78.56022
1.46                   0.9973228        -79.4606
1.464                  0.9972862       -80.36541
1.468                  0.9970478        -81.2697
1.472                  0.9966442       -82.16898
1.476                   0.996141       -83.05995
1.48                   0.9956218       -83.94109
1.484                  0.9951753       -84.81298
1.488                  0.9948778       -85.67823
1.492                   0.994782       -86.54105
1.496                  0.9949062       -87.40657
1.5                    0.9952307       -88.27993
1.504                  0.9957007       -89.16542
1.508                  0.9962355       -90.06568
1.512                  0.9967421       -90.98127
1.516                  0.9971303       -91.91045
1.52                   0.9973289        -92.8496
1.524                  0.9972982       -93.79368
1.528                   0.997037       -94.73711
1.532                  0.9965836        -95.6747
1.536                  0.9960098       -96.60254
1.54                   0.9954104       -97.51872
1.544                  0.9948855       -98.42362
1.548                  0.9945253          -99.32
1.552                  0.9943932       -100.2125
1.556                  0.9945145       -101.1071
1.56                   0.9948715       -102.0095
1.564                  0.9954053       -102.9249
1.568                  0.9960256       -103.8567
1.572                  0.9966254       -104.8057
1.576                   0.997099       -105.7702
1.58                   0.9973605       -106.7464
1.584                  0.9973582       -107.7284
1.588                   0.997084       -108.7098
1.592                  0.9965767       -109.6846
1.596                  0.9959155       -110.6477
1.6                    0.9952077       -111.5966
1.604                  0.9945718       -112.5312
1.608                  0.9941165       -113.4546
1.612                  0.9939227       -114.3718
1.616                  0.9940279       -115.2895
1.62                   0.9944194        -116.215
1.624                  0.9950343       -117.1545
1.628                  0.9957703       -118.1123
1.632                  0.9965014       -119.0901
1.636                  0.9970987       -120.0864
1.64                   0.9974531       -121.0968
1.644                  0.9974938       -122.1148
1.648                   0.997201       -123.1327
1.652                  0.9966103       -124.1427
1.656                  0.9958095       -125.1386
1.66                   0.9949249       -126.1165
1.664                  0.9941004       -127.0757
1.668                  0.9934746       -128.0191
1.672                  0.9931564       -128.9526
1.676                  0.9932054       -129.8841
1.68                   0.9936196       -130.8226
1.684                  0.9943339       -131.7763
1.688                  0.9952297       -132.7514
1.692                  0.9961528       -133.7507
1.696                  0.9969393       -134.7732
1.7                    0.9974427       -135.8143
1.704                  0.9975593       -136.8663
1.708                  0.9972465       -137.9194
1.712                  0.9965325       -138.9637
1.716                   0.995515       -139.9904
1.72                   0.9943465       -140.9937
1.724                  0.9932121       -141.9715
1.728                  0.9922992       -142.9263
1.732                  0.9917648       -143.8648
1.736                  0.9917084       -144.7973
1.74                   0.9921509       -145.7356
1.744                  0.9930279       -146.6914
1.748                  0.9941973       -147.6738
1.752                  0.9954596       -148.6884
1.756                  0.9965902       -149.7354
1.76                   0.9973757       -150.8098
1.764                  0.9976501       -151.9022
1.768                  0.9973245       -152.9999
1.772                   0.996406       -154.0886
1.776                  0.9950009       -155.1553
1.78                   0.9933045         -156.19
1.784                  0.9915721       -157.1878
1.788                  0.9900804       -158.1501
1.792                  0.9890817       -159.0849
1.796                  0.9887576       -160.0059
1.8                    0.9891829       -160.9308
1.804                  0.9903046       -161.8779
1.808                  0.9919427       -162.8635
1.812                  0.9938125       -163.8987
1.816                  0.9955666       -164.9873
1.82                   0.9968473       -166.1247
1.824                   0.997346       -167.2988
1.828                  0.9968562       -168.4909
1.832                  0.9953145       -169.6784
1.836                  0.9928226       -170.8384
1.84                   0.9896453       -171.9509
1.844                  0.9861828       -173.0032
1.848                   0.982917       -173.9924
1.852                  0.9803361       -174.9281
1.856                  0.9788478       -175.8324
1.86                   0.9786933       -176.7378
1.864                  0.9798793        -177.683
1.868                  0.9821403       -178.7069
1.872                   0.984944       -179.8423
1.876                  0.9875354        178.8903
1.88                   0.9890181        177.4859
1.884                  0.9884547        175.9574
1.888                  0.9849765        174.3356
1.892                  0.9778899        172.6679
1.896                  0.9667714        171.0162
1.9                    0.9515463        169.4542
1.904                  0.9325467        168.0638
1.908                  0.9105459        166.9307
1.912                  0.8867602        166.1362
1.916                   0.862806         165.747
1.92                   0.8405978           165.8
1.924                  0.8221654        166.2851
1.928                   0.809395        167.1325
1.932                  0.8037222        168.2099
1.936                  0.8058532        169.3393
1.94                    0.815611        170.3313
1.944                  0.8319678        171.0227
1.948                  0.8532491        171.3053
1.952                  0.8774321        171.1348
1.956                  0.9024419        170.5233
1.96                   0.9263907        169.5234
1.964                  0.9477357        168.2124
1.968                  0.9653691        166.6786
1.972                   0.978652        165.0116
1.976                  0.9874099        163.2964
1.98                   0.9918968        161.6083
1.984                  0.9927321        160.0099
1.988                  0.9908137        158.5469
1.992                  0.9872084        157.2462
1.996                  0.9830249        156.1132
2                      0.9792815        155.1324
2.004                  0.9767821        154.2696
2.008                  0.9760231        153.4776
2.012                  0.9771482        152.7046
2.016                  0.9799585        151.9026
2.02                    0.983979        151.0348
2.024                   0.988562        150.0808
2.028                  0.9930074        149.0376
2.032                  0.9966786        147.9181
2.036                  0.9990962        146.7474
2.04                   0.9999999         145.558
2.044                  0.9993741        144.3843
2.048                  0.9974374        143.2577
2.052                  0.9946015        142.2021
2.056                  0.9914015        141.2304
2.06                   0.9884089        140.3426
2.064                  0.9861407        139.5258
2.068                  0.9849749        138.7562
2.072                  0.9850917        138.0035
2.076                  0.9864486         137.236
2.08                   0.9887955        136.4265
2.084                  0.9917231        135.5565
2.088                  0.9947389         134.619
2.092                  0.9973507        133.6188
2.096                  0.9991463        132.5714
2.1                    0.9998567        131.4997
2.104                  0.9993942        130.4303
2.108                  0.9978627        129.3893
2.112                  0.9955365        128.3984
2.116                  0.9928182        127.4714
2.12                   0.9901693         126.612
2.124                  0.9880363        125.8127
2.128                   0.986775        125.0564
2.132                  0.9865894        124.3187
2.136                  0.9874977        123.5727
2.14                   0.9893305        122.7935
2.144                  0.9917624        121.9624
2.148                  0.9943707        121.0704
2.152                  0.9967075        120.1192
2.156                   0.998375        119.1204
2.16                   0.9990895        118.0933
2.164                  0.9987264         117.062
2.168                  0.9973392        116.0514
2.172                   0.995151        115.0832
2.176                  0.9925186        114.1723
2.18                   0.9898762        113.3246
2.184                  0.9876619        112.5351
2.188                  0.9862441        111.7891
2.192                  0.9858554        111.0639
2.196                  0.9865515         110.333
2.2                    0.9881992         109.571
2.204                     0.9905        108.7578
2.208                  0.9930418        107.8823
2.212                    0.99537        106.9441
2.216                  0.9970649        105.9533
2.22                   0.9978103        104.9285
2.224                  0.9974465         103.894
2.228                  0.9959974        102.8758
2.232                  0.9936682        101.8972
2.236                  0.9908152        100.9756
2.24                   0.9878899        100.1186
2.244                  0.9853644        99.32298
2.248                  0.9836504        98.57404
2.252                  0.9830243        97.84821
2.256                  0.9835756        97.11683
2.26                   0.9851864        96.35136
2.264                    0.98755        95.52848
2.268                  0.9902223        94.63433
2.272                  0.9926986        93.66668
2.276                  0.9944987        92.63521
2.28                   0.9952482        91.55979
2.284                  0.9947408        90.46707
2.288                  0.9929759         89.3865
2.292                  0.9901632        88.34551
2.296                  0.9866944        87.36501
2.3                    0.9830842        86.45545
2.304                  0.9798865        85.61433
2.308                  0.9775993        84.82563
2.312                  0.9765722        84.06193
2.316                  0.9769385        83.28878
2.32                   0.9785823        82.47081
2.324                  0.9811527        81.57823
2.328                  0.9841209        80.59214
2.332                    0.98687         79.5077
2.336                  0.9887973        78.33482
2.34                   0.9894167        77.09618
2.344                  0.9884398        75.82376
2.348                   0.985829        74.55371
2.352                  0.9818122        73.32083