! TOUCHSTONE file generated by CST MICROWAVE STUDIO
! Date and time: Tue Jun 14 11:51:07 2022
! Project name: AppElm_antenne_patch_FR4.cst
! Parameters = {L=56.25; W=58.5; e=0.035; h=1.6; lambda=0.190476; ls=120; w0=2.54; w1=0.847; ws=120; y0=18; y1=23.8}
! Header version: 2018
! Port assignment regex: !\s*Touchstone port\s*([0-9]+)\s*=\s*(CST MWS port|CST DS port)\s*([0-9]+|Zmin|Zmax)\s*\(\"(.*)\"\)(\s*mode\s*([0-9]+))?.*
! Touchstone port assignment:
! Touchstone port 1 = CST MWS port 1 ("")
# GHz S MA R 50
0                      0.9646445              -0
0.004                  0.9665905       -11.91145
0.008                  0.9721596       -23.66666
0.012                  0.9805933       -35.12316
0.016                  0.9907729       -46.16219
0.02                    1.001399       -56.69274
0.024                   1.011179       -66.65017
0.028                    1.01899       -75.99157
0.032                   1.024009        -84.6902
0.036                   1.025789       -92.73073
0.04                    1.024295       -100.1065
0.044                    1.01989        -106.819
0.048                   1.013288       -112.8792
0.052                    1.00546       -118.3109
0.056                  0.9975089       -123.1536
0.06                   0.9905241       -127.4651
0.064                  0.9854243       -131.3209
0.068                  0.9828227       -134.8099
0.072                  0.9829384       -138.0265
0.076                  0.9855755       -141.0599
0.08                   0.9901716       -143.9849
0.084                  0.9959093       -146.8542
0.088                   1.001858       -149.6964
0.092                   1.007121       -152.5163
0.096                   1.010962       -155.2999
0.1                     1.012897         -158.02
0.104                    1.01275       -160.6426
0.108                   1.010653       -163.1333
0.112                   1.007022       -165.4632
0.116                   1.002485       -167.6138
0.12                    0.997783       -169.5812
0.124                  0.9936609       -171.3777
0.128                  0.9907471       -173.0311
0.132                  0.9894564       -174.5813
0.136                  0.9899264       -176.0739
0.14                   0.9920041       -177.5534
0.144                  0.9952824        -179.056
0.148                  0.9991795        179.3958
0.152                   1.003042        177.7948
0.156                   1.006254        176.1492
0.16                    1.008329        174.4792
0.164                   1.008979        172.8134
0.168                   1.008151        171.1835
0.172                   1.006027        169.6193
0.176                   1.002988        168.1443
0.18                   0.9995534        166.7718
0.184                  0.9962955        165.5024
0.188                  0.9937458        164.3237
0.192                  0.9923084        163.2121
0.196                  0.9921925        162.1364
0.2                    0.9933812        161.0636
0.204                  0.9956391        159.9642
0.208                    0.99856        158.8174
0.212                    1.00164         157.614
0.216                   1.004364         156.357
0.22                    1.006294        155.0605
0.224                   1.007132         153.747
0.228                   1.006765        152.4431
0.232                   1.005279        151.1753
0.236                   1.002941        149.9662
0.24                    1.000156        148.8304
0.244                  0.9973962        147.7724
0.248                   0.995125        146.7855
0.252                  0.9937188        145.8525
0.256                  0.9934019         144.949
0.26                   0.9942094        144.0475
0.264                  0.9959841        143.1221
0.268                  0.9984068        142.1534
0.272                   1.001055        141.1312
0.276                   1.003479        140.0563
0.28                    1.005274        138.9393
0.284                   1.006149         137.799
0.288                   1.005972        136.6588
0.292                   1.004786        135.5429
0.296                   1.002802        134.4724
0.3                     1.000363        133.4621
0.304                  0.9978886        132.5178
0.308                  0.9958001        131.6351
0.312                   0.994452           130.8
0.316                  0.9940696        129.9915
0.32                   0.9947086        129.1847
0.324                   0.996248        128.3559
0.328                  0.9984121        127.4867
0.332                   1.000823        126.5668
0.336                   1.003064        125.5958
0.34                    1.004757        124.5827
0.344                   1.005618        123.5444
0.348                   1.005509        122.5025
0.352                   1.004454        121.4797
0.356                    1.00264        120.4962
0.36                    1.000381        119.5666
0.364                  0.9980657         118.697
0.368                  0.9960942         117.884
0.372                  0.9948067         117.115
0.376                  0.9944238        116.3704
0.38                   0.9950074        115.6268
0.384                  0.9964503        114.8618
0.388                  0.9984958        114.0574
0.392                   1.000785        113.2035
0.396                   1.002921        112.2995
0.4                     1.004536        111.3539
0.404                   1.005356        110.3827
0.408                   1.005242        109.4067
0.412                   1.004219        108.4479
0.416                   1.002462        107.5262
0.42                    1.000277        106.6556
0.424                  0.9980408        105.8422
0.428                  0.9961439        105.0827
0.432                  0.9949176        104.3648
0.436                  0.9945761        103.6692
0.44                   0.9951782        102.9732
0.444                   0.996616        102.2548
0.448                  0.9986349        101.4964
0.452                    1.00088        100.6885
0.456                   1.002959        99.83061
0.46                    1.004512        98.93137
0.464                   1.005269        98.00691
0.468                   1.005101        97.07798
0.472                   1.004036        96.16651
0.476                   1.002257        95.29199
0.48                    1.000072        94.46822
0.484                  0.9978613        93.70074
0.488                  0.9960124        92.98577
0.492                   0.994852        92.31053
0.496                  0.9945867        91.65544
0.5                    0.9952644        90.99761
0.504                   0.996766          90.315
0.508                  0.9988263        89.59056
0.512                   1.001082         88.8152
0.516                   1.003138        87.98918
0.52                    1.004633          87.122
0.524                   1.005307        86.23045
0.528                    1.00504        85.33585
0.532                   1.003874        84.46038
0.536                    1.00201        83.62353
0.54                   0.9997696        82.83863
0.544                  0.9975449        82.11052
0.548                  0.9957284        81.43436
0.552                  0.9946446        80.79631
0.556                  0.9944892        80.17578
0.56                   0.9952937        79.54915
0.564                  0.9969176        78.89421
0.568                  0.9990745        78.19421
0.572                   1.001383        77.44084
0.576                   1.003437        76.63555
0.58                    1.004873        75.78915
0.584                   1.005438        74.91971
0.588                   1.005027        74.04959
0.592                   1.003707        73.20159
0.596                   1.001702        72.39529
0.6                    0.9993599        71.64352
0.604                  0.9970919        70.95003
0.608                   0.995301        70.30853
0.612                  0.9943104         69.7034
0.616                  0.9943026        69.11251
0.62                   0.9952844        68.51115
0.624                  0.9970856        67.87664
0.628                   0.999388        67.19258
0.632                   1.001784        66.45175
0.636                   1.003849        65.65721
0.64                    1.005216        64.82159
0.644                   1.005641        63.96481
0.648                   1.005039         63.1107
0.652                   1.003509          62.283
0.656                   1.001309        61.50143
0.66                   0.9988233         60.7782
0.664                   0.996489        60.11561
0.668                  0.9947243        59.50533
0.672                   0.993851        58.92946
0.676                  0.9940338        58.36373
0.68                   0.9952479        57.78189
0.684                  0.9972823        57.16068
0.688                  0.9997774        56.48416
0.692                    1.00229        55.74649
0.696                   1.004373        54.95285
0.7                     1.005654        54.11832
0.704                   1.005898        53.26516
0.708                   1.005051        52.41912
0.712                    1.00325        51.60515
0.716                     1.0008        50.84318
0.72                   0.9981286         50.1446
0.724                  0.9957085        49.50982
0.728                  0.9939769        48.92785
0.732                  0.9932535        48.37784
0.736                  0.9936794         47.8328
0.74                   0.9951889        47.26452
0.744                  0.9975188        46.64905
0.748                   1.000257        45.97105
0.752                   1.002915        45.22654
0.756                   1.005018        44.42337
0.76                    1.006185         43.5797
0.764                   1.006199        42.72075
0.768                    1.00504        41.87472
0.772                   1.002896        41.06801
0.776                   1.000131        40.32084
0.78                    0.997228        39.64344
0.784                  0.9947041        39.03384
0.788                  0.9930191        38.47766
0.792                   0.992489        37.95028
0.796                  0.9932246        37.42123
0.8                     0.995107        36.85999
0.804                  0.9978073        36.24172
0.808                   1.000846        35.55198
0.812                   1.003681        34.78917
0.816                   1.005801        33.96453
0.82                    1.006819        33.10008
0.824                   1.006536        32.22479
0.828                   1.004979        31.36983
0.832                   1.002402        30.56347
0.836                  0.9992406        29.82618
0.84                   0.9960499        29.16676
0.844                  0.9934014        28.58013
0.848                  0.9917831        28.04755
0.852                  0.9915054        27.53957
0.856                  0.9926385        27.02141
0.86                   0.9949954        26.45956
0.864                  0.9981631        25.82825
0.868                   1.001578        25.11423
0.872                   1.004629        24.31897
0.876                   1.006761        23.45806
0.88                    1.007578        22.55841
0.884                   1.006908        21.65368
0.888                   1.004837        20.77886
0.892                   1.001702        19.96456
0.896                  0.9980335        19.23161
0.9                    0.9944769        18.58692
0.904                  0.9916747        18.02136
0.908                  0.9901505         17.5105
0.912                   0.990206        17.01863
0.916                  0.9918589        16.50531
0.92                   0.9948325        15.93324
0.924                  0.9986047        15.27551
0.928                   1.002503         14.5205
0.932                   1.005825        13.67368
0.936                   1.007962        12.75629
0.94                    1.008505        11.80156
0.944                   1.007318        10.84926
0.948                   1.004562        9.939419
0.952                   1.000683        9.105777
0.956                   0.996338        8.369752
0.96                   0.9922931        7.735831
0.964                  0.9892859         7.18949
0.968                  0.9878893        6.698655
0.972                  0.9883947        6.219039
0.976                  0.9907482        5.702526
0.98                   0.9945534        5.106687
0.984                  0.9991408        4.403032
0.988                   1.003689        3.582121
0.992                   1.007374        2.654782
0.996                    1.00951        1.649772
1                       1.009669       0.6088264
1.004                   1.007758      -0.4199275
1.008                   1.004041       -1.389408
1.012                  0.9991114       -2.261223
1.016                  0.9938015       -3.012766
1.02                   0.9890492       -3.642609
1.024                   0.985732       -4.172712
1.028                  0.9844976       -4.646074
1.032                  0.9856285       -5.119418
1.036                  0.9889737       -5.652162
1.04                   0.9939672       -6.294427
1.044                  0.9997277       -7.077263
1.048                    1.00522       -8.007299
1.052                   1.009436       -9.066352
1.056                   1.011572       -10.21516
1.06                    1.011162       -11.39985
1.064                   1.008164       -12.56002
1.068                   1.002982       -13.63775
1.072                   0.996423       -14.58682
1.076                  0.9895811       -15.38171
1.08                   0.9836649        -16.0246
1.084                  0.9797805       -16.54823
1.088                  0.9787117       -17.01257
1.092                  0.9807471       -17.49456
1.096                  0.9855993       -18.07243
1.1                    0.9924441       -18.80967
1.104                   1.000068       -19.74265
1.108                   1.007088       -20.87485
1.112                   1.012191        -22.1778
1.116                   1.014354       -23.59665
1.12                    1.013013       -25.05894
1.124                   1.008169       -26.48435
1.128                    1.00042       -27.79581
1.132                  0.9909008       -28.93152
1.136                  0.9811468       -29.85745
1.14                   0.9728555       -30.57839
1.144                  0.9675848       -31.14388
1.148                  0.9664301       -31.64441
1.152                  0.9697629       -32.19601
1.156                   0.977109       -32.91617
1.16                   0.9872092       -33.89862
1.164                  0.9982461       -35.19555
1.168                   1.008166       -36.81089
1.172                   1.015019       -38.70355
1.176                   1.017266       -40.79655
1.18                    1.014009       -42.98807
1.184                   1.005149       -45.16319
1.188                  0.9914672       -47.20647
1.192                  0.9745967       -49.01761
1.196                   0.956888       -50.53159
1.2                    0.9411138       -51.74258
1.204                  0.9300089       -52.72519
1.208                  0.9256877       -53.64105
1.212                  0.9290836       -54.71892
1.216                  0.9396045       -56.20918
1.22                   0.9551471       -58.33092
1.224                  0.9724524       -61.23598
1.228                  0.9876435       -65.00132
1.232                   0.996763       -69.64455
1.236                  0.9962048       -75.14925
1.24                   0.9830154        -81.4902
1.244                  0.9550884       -88.65565
1.248                  0.9112912       -96.66776
1.252                  0.8515659       -105.6074
1.256                  0.7770504       -115.6518
1.26                   0.6902997       -127.1396
1.264                   0.595765        -140.689
1.268                  0.5008582       -157.3809
1.272                  0.4180311       -178.8421
1.276                  0.3666685        153.7799
1.28                   0.3662712        123.2019
1.284                  0.4170322        95.73604
1.288                  0.4995908        74.17829
1.292                  0.5944646        57.40934
1.296                  0.6890924        43.79691
1.3                    0.7759872        32.25222
1.304                  0.8506427        22.15207
1.308                  0.9104596        13.15507
1.312                  0.9542633        5.083191
1.316                  0.9820837       -2.144287
1.32                   0.9950362       -8.548475
1.324                   0.995226       -14.11555
1.328                  0.9856258       -18.81753
1.332                  0.9698856       -22.63467
1.336                  0.9520331       -25.58162
1.34                   0.9360355       -27.73421
1.344                  0.9252453       -29.24637
1.348                  0.9218384       -30.34322
1.352                  0.9264336       -31.28385
1.356                  0.9380679        -32.3056
1.36                   0.9545484       -33.57584
1.364                  0.9730359       -35.17119
1.368                  0.9906493       -37.08458
1.372                   1.004941       -39.24772
1.376                   1.014202       -41.55605
1.38                    1.017606       -43.88936
1.384                    1.01523       -46.12769
1.388                    1.00799       -48.16395
1.392                  0.9974798       -49.91593
1.396                  0.9857344       -51.33806
1.4                    0.9749226       -52.43156
1.404                  0.9669871       -53.24896
1.408                  0.9632989       -53.88812
1.412                  0.9644051       -54.47386
1.416                  0.9699502       -55.13111
1.42                   0.9787938       -55.95845
1.424                  0.9892851       -57.01085
1.428                   0.999606       -58.29529
1.432                   1.008096       -59.77681
1.436                   1.013506       -61.39036
1.44                    1.015154       -63.05395
1.444                   1.012989       -64.68126
1.448                    1.00757       -66.19312
1.452                   0.999965       -67.52804
1.456                  0.9915744       -68.65163
1.46                   0.9839071       -69.56353
1.464                  0.9783192       -70.29954
1.468                  0.9757692       -70.92653
1.472                  0.9766421       -71.52985
1.476                  0.9806891       -72.19542
1.48                   0.9870998       -72.99234
1.484                  0.9946824       -73.96041
1.488                   1.002103       -75.10563
1.492                   1.008124       -76.40297
1.496                   1.011803       -77.80362
1.5                     1.012624       -79.24471
1.504                    1.01056       -80.65912
1.508                   1.006058       -81.98521
1.512                  0.9999609       -83.17576
1.516                   0.993369       -84.20559
1.52                   0.9874553       -85.07657
1.524                   0.983261       -85.81869
1.528                  0.9815062       -86.48534
1.532                  0.9824582       -87.14317
1.536                  0.9858886       -87.85864
1.54                   0.9911313       -88.68473
1.544                  0.9972233        -89.6516
1.548                   1.003092       -90.76276
1.552                   1.007745       -91.99689
1.556                   1.010434       -93.31332
1.56                    1.010762       -94.65967
1.564                   1.008737       -95.98034
1.568                    1.00476       -97.22467
1.572                   0.999556       -98.35476
1.576                  0.9940527       -99.35172
1.58                   0.9892244       -100.2197
1.584                  0.9859196       -100.9859
1.588                  0.9847074       -101.6962
1.592                  0.9857723       -102.4068
1.596                  0.9888854       -103.1724
1.6                    0.9934571       -104.0362
1.604                  0.9986563       -105.0218
1.608                   1.003569       -106.1305
1.612                    1.00736       -107.3424
1.616                   1.009407       -108.6216
1.62                    1.009401        -109.922
1.624                    1.00738       -111.1954
1.628                   1.003726       -112.3985
1.632                  0.9990929       -113.4997
1.636                  0.9943008       -114.4846
1.64                   0.9901956       -115.3592
1.644                   0.987499       -116.1492
1.648                  0.9866769       -116.8962
1.652                  0.9878539       -117.6494
1.656                  0.9907932       -118.4564
1.66                   0.9949477       -119.3535
1.664                  0.9995691       -120.3599
1.668                   1.003846       -121.4747
1.672                   1.007047       -122.6789
1.676                   1.008642       -123.9389
1.68                    1.008382       -125.2131
1.684                   1.006338       -126.4581
1.688                   1.002881       -127.6355
1.692                  0.9986231       -128.7184
1.696                   0.994315       -129.6957
1.7                    0.9907164       -130.5749
1.704                  0.9884611       -131.3812
1.708                  0.9879405       -132.1535
1.712                   0.989232       -132.9367
1.716                  0.9920865       -133.7731
1.72                     0.99598       -134.6946
1.724                   1.000215       -135.7167
1.728                   1.004048       -136.8371
1.732                   1.006822       -138.0364
1.736                   1.008071       -139.2828
1.74                    1.007597       -140.5371
1.744                   1.005497       -141.7592
1.748                   1.002145       -142.9144
1.752                  0.9981286       -143.9792
1.756                  0.9941553       -144.9451
1.76                   0.9909257       -145.8213
1.764                  0.9890105        -146.633
1.768                  0.9887439       -147.4174
1.772                  0.9901633       -148.2167
1.776                  0.9930022       -149.0698
1.78                   0.9967443       -150.0051
1.784                   1.000721       -151.0355
1.788                   1.004236       -152.1566
1.792                    1.00668       -153.3488
1.796                   1.007642       -154.5807
1.8                     1.006962       -155.8146
1.804                   1.004768       -157.0129
1.808                   1.001442       -158.1432
1.812                  0.9975676       -159.1847
1.816                  0.9938242       -160.1315
1.82                   0.9908735       -160.9941
1.824                  0.9892393       -161.7986
1.828                  0.9892093       -162.5816
1.832                  0.9907822       -163.3837
1.836                   0.993668       -164.2415
1.84                    0.997345       -165.1804
1.844                   1.001157       -166.2111
1.848                   1.004435       -167.3273
1.852                   1.006608       -168.5083
1.856                   1.007305       -169.7226
1.86                    1.006406       -170.9331
1.864                   1.004069       -172.1035
1.868                   1.000699       -173.2035
1.872                  0.9968831       -174.2144
1.876                  0.9932918       -175.1325
1.88                   0.9905616       -175.9706
1.884                  0.9891796       -176.7557
1.888                   0.989392       -177.5251
1.892                  0.9911567       -178.3185
1.896                  0.9941519       -179.1707
1.9                    0.9978374        179.8948
1.904                   1.001556        178.8701
1.908                   1.004651        177.7632
1.912                    1.00658        176.5967
1.916                   1.007007        175.4029
1.92                    1.005854         174.219
1.924                   1.003315        173.0808
1.928                  0.9998278        172.0169
1.932                  0.9959978        171.0441
1.936                  0.9924989        170.1636
1.94                   0.9899537        169.3601
1.944                  0.9888194        168.6045
1.948                  0.9893004        167.8587
1.952                  0.9913085        167.0826
1.956                   0.994479        166.2426
1.96                   0.9982405        165.3173
1.964                    1.00192        164.3012
1.968                   1.004863        163.2052
1.972                    1.00655        162.0538
1.976                   1.006678        160.8814
1.98                    1.005213        159.7256
1.984                   1.002399        158.6223
1.988                  0.9987148         157.599
1.992                  0.9948008        156.6702
1.996                  0.9913462        155.8345
2                      0.9889688        155.0734
2.004                  0.9880981        154.3549
2.008                  0.9888934        153.6387
2.012                  0.9912109        152.8843
2.016                  0.9946296        152.0587
2.02                   0.9985314        151.1426
2.024                   1.002214        150.1333
2.028                   1.005018         149.045
2.032                   1.006437        147.9055
2.036                   1.006207        146.7513
2.04                    1.004348        145.6219
2.044                   1.001161        144.5535
2.048                  0.9971881        143.5725
2.052                  0.9931158        142.6913
2.056                   0.989663        141.9049
2.06                   0.9874495        141.1908
2.064                  0.9868779        140.5131
2.068                  0.9880541        139.8285
2.072                  0.9907642         139.095
2.076                  0.9945137        138.2802
2.08                   0.9986201         137.367
2.084                   1.002337        136.3564
2.088                   1.004989        135.2665
2.092                   1.006085        134.1294
2.096                   1.005402        132.9851
2.1                     1.003025        131.8754
2.104                  0.9993341        130.8373
2.108                  0.9949493        129.8966
2.112                  0.9906268        129.0628
2.116                  0.9871289        128.3266
2.12                   0.9850842        127.6603
2.124                   0.984865        127.0223
2.128                  0.9865117        126.3652
2.132                  0.9897206        125.6449
2.136                  0.9938985        124.8293
2.14                   0.9982754         123.904
2.144                   1.002043        122.8744
2.148                     1.0045        121.7642
2.152                   1.005166        120.6107
2.156                   1.003872        119.4587
2.16                    1.000783        118.3537
2.164                  0.9963841        117.3341
2.168                   0.991402         116.425
2.172                  0.9866878        115.6325
2.176                  0.9830683        114.9416
2.18                   0.9811896        114.3171
2.184                  0.9813889        113.7103
2.188                   0.983621        113.0673
2.192                  0.9874613         112.341
2.196                  0.9921836        111.4991
2.2                    0.9968954        110.5306
2.204                   1.000699        109.4469
2.208                   1.002849        108.2787
2.212                   1.002879        107.0708
2.216                   1.000678        105.8748
2.22                   0.9965245        104.7414
2.224                  0.9910408        103.7117
2.228                  0.9851064        102.8103
2.232                  0.9797116         102.039
2.236                  0.9757812        101.3746
2.24                   0.9739959        100.7715
2.244                    0.97465        100.1694
2.248                  0.9775815        99.50524
2.252                  0.9821941        98.72589
2.256                  0.9875664        97.79857
2.26                   0.9926225        96.71631
2.264                   0.996323        95.49805
2.268                  0.9978436        94.18455
2.272                   0.996715        92.83143
2.276                  0.9929037        91.50071
2.28                   0.9868325        90.25149
2.284                  0.9793283        89.13032
2.288                  0.9715026        88.16206
2.292                  0.9645696        87.34272
2.296                  0.9596256        86.63664
2.3                    0.9574263        85.98021
2.304                  0.9582165        85.29284
2.308                  0.9616558        84.49306
2.312                  0.9668679          83.515
2.316                  0.9725957        82.32096
2.32                    0.977427        80.90686
2.324                  0.9800356        79.30095
2.328                  0.9793984        77.55776
2.332                  0.9749589        75.74931
2.336                  0.9667251        73.95492
2.34                   0.9552902           72.25
2.344                  0.9417705        70.69349
2.348                  0.9276523        69.31458
2.352                  0.9145476        68.10046