! TOUCHSTONE file generated by CST MICROWAVE STUDIO
! Date and time: Tue Jun 14 11:51:01 2022
! Project name: AppElm_antenne_patch_FR4.cst
! Parameters = {L=42.75; W=58.5; e=0.035; h=1.6; lambda=0.190476; ls=120; w0=2.54; w1=0.847; ws=120; y0=18; y1=23.8}
! Header version: 2018
! Port assignment regex: !\s*Touchstone port\s*([0-9]+)\s*=\s*(CST MWS port|CST DS port)\s*([0-9]+|Zmin|Zmax)\s*\(\"(.*)\"\)(\s*mode\s*([0-9]+))?.*
! Touchstone port assignment:
! Touchstone port 1 = CST MWS port 1 ("")
# GHz S MA R 50
0                      0.9890425              -0
0.004                  0.9896644       -9.541344
0.008                  0.9914489       -19.00163
0.012                  0.9941642        -28.3036
0.016                  0.9974616       -37.37694
0.02                    1.000924       -46.16058
0.024                   1.004124       -54.60373
0.028                   1.006678       -62.66612
0.032                   1.008296       -70.31754
0.036                   1.008813       -77.53731
0.04                    1.008208       -84.31369
0.044                   1.006601       -90.64364
0.048                   1.004238       -96.53268
0.052                   1.001458       -101.9951
0.056                    0.99864       -107.0538
0.06                    0.996161       -111.7396
0.064                  0.9943383         -116.09
0.068                  0.9933885       -120.1471
0.072                  0.9933994       -123.9544
0.076                  0.9943201       -127.5538
0.08                   0.9959745       -130.9826
0.084                  0.9980905       -134.2707
0.088                   1.000344       -137.4394
0.092                   1.002408       -140.5011
0.096                   1.003997       -143.4604
0.1                     1.004906       -146.3155
0.104                   1.005039       -149.0605
0.108                   1.004413        -151.688
0.112                   1.003154       -154.1917
0.116                   1.001476       -156.5682
0.12                   0.9996487       -158.8189
0.124                  0.9979525       -160.9507
0.128                  0.9966403       -162.9759
0.132                  0.9958986       -164.9114
0.136                  0.9958208       -166.7765
0.14                   0.9963948       -168.5911
0.144                  0.9975089       -170.3726
0.148                  0.9989718       -172.1347
0.152                   1.000545       -173.8851
0.156                   1.001981       -175.6261
0.16                    1.003064        -177.354
0.164                   1.003635        -179.061
0.168                   1.003623        179.2633
0.172                   1.003048        177.6298
0.176                   1.002013        176.0483
0.18                    1.000695        174.5251
0.184                   0.999309        173.0624
0.188                  0.9980756        171.6573
0.192                  0.9971879        170.3022
0.196                  0.9967796        168.9858
0.2                    0.9969047        167.6949
0.204                  0.9975308        166.4159
0.208                  0.9985452        165.1376
0.212                  0.9997756         163.852
0.216                   1.001019        162.5559
0.22                    1.002075        161.2508
0.224                   1.002777        159.9427
0.228                   1.003018        158.6404
0.232                   1.002769        157.3544
0.236                   1.002077         156.095
0.24                    1.001061        154.8703
0.244                  0.9998912        153.6853
0.248                  0.9987588        152.5407
0.252                  0.9978482        151.4328
0.256                  0.9973053        150.3539
0.26                   0.9972135        149.2938
0.264                   0.997581        148.2411
0.268                  0.9983406        147.1852
0.272                  0.9993613        146.1181
0.276                   1.000471        145.0356
0.28                    1.001486        143.9374
0.284                    1.00224        142.8279
0.288                   1.002612        141.7144
0.292                   1.002545        140.6064
0.296                   1.002054        139.5137
0.3                     1.001225        138.4452
0.304                   1.000196        137.4069
0.308                  0.9991408        136.4012
0.312                  0.9982338        135.4264
0.316                  0.9976249        134.4768
0.32                   0.9974133         133.544
0.324                  0.9976307        132.6177
0.328                  0.9982375        131.6879
0.332                  0.9991287        130.7464
0.336                   1.000153        129.7881
0.34                    1.001137        128.8119
0.344                   1.001918        127.8207
0.348                   1.002367        126.8208
0.352                   1.002411        125.8209
0.356                   1.002045        124.8307
0.36                    1.001332        123.8589
0.364                   1.000394        122.9123
0.368                   0.999389        121.9942
0.372                  0.9984862        121.1041
0.376                  0.9978379        120.2377
0.38                   0.9975526        119.3873
0.384                  0.9976771        118.5434
0.388                  0.9981889        117.6964
0.392                  0.9989996        116.8379
0.396                  0.9999706        115.9622
0.4                     1.000937        115.0676
0.404                   1.001737         114.156
0.408                   1.002234        113.2332
0.412                   1.002348        112.3072
0.416                   1.002059        111.3874
0.42                    1.001417        110.4829
0.424                   1.000531        109.6006
0.428                  0.9995528        108.7446
0.432                  0.9986477        107.9151
0.436                    0.99797        107.1085
0.44                   0.9976351        106.3177
0.444                     0.9977        105.5336
0.448                  0.9981528        104.7468
0.452                  0.9989157        103.9485
0.456                  0.9998577        103.1328
0.46                    1.000818        102.2974
0.464                   1.001632        101.4439
0.468                   1.002163        100.5773
0.472                   1.002319        99.70564
0.476                   1.002074        98.83809
0.48                     1.00147        97.98377
0.484                   1.000608        97.15008
0.488                  0.9996371        96.34144
0.492                  0.9987215        95.55855
0.496                  0.9980185        94.79816
0.5                    0.9976489        94.05361
0.504                  0.9976764        93.31597
0.508                  0.9980963        92.57556
0.512                  0.9988364        91.82364
0.516                   0.999769        91.05396
0.52                    1.000733        90.26377
0.524                   1.001564        89.45434
0.528                   1.002118        88.63059
0.532                     1.0023        87.80036
0.536                   1.002077        86.97293
0.54                    1.001487         86.1576
0.544                   1.000629        85.36202
0.548                  0.9996503        84.59095
0.552                  0.9987177        83.84536
0.556                  0.9979921        83.12221
0.56                   0.9975994         82.4149
0.564                  0.9976079        81.71451
0.568                  0.9980169        81.01113
0.572                  0.9987559        80.29582
0.576                  0.9996973        79.56207
0.58                    1.000678        78.80689
0.584                    1.00153        78.03138
0.588                   1.002103        77.24047
0.592                     1.0023        76.44205
0.596                   1.002083        75.64562
0.6                     1.001489        74.86073
0.604                   1.000619         74.0953
0.608                  0.9996196         73.3543
0.612                  0.9986641        72.63888
0.616                   0.997918        71.94601
0.62                   0.9975112        71.26902
0.624                  0.9975158         70.5987
0.628                  0.9979321        69.92497
0.632                  0.9986888        69.23854
0.636                  0.9996554        68.53264
0.64                    1.000664        67.80418
0.644                    1.00154        67.05427
0.648                   1.002131        66.28795
0.652                   1.002333        65.51333
0.656                   1.002108        64.74026
0.66                    1.001495        63.97861
0.664                   1.000595        63.23659
0.668                  0.9995631        62.51935
0.672                  0.9985777        61.82808
0.676                    0.99781        61.15963
0.68                    0.997395        60.50705
0.684                  0.9974067        59.86082
0.688                   0.997845        59.21041
0.692                  0.9986351        58.54621
0.696                  0.9996403        57.86125
0.7                     1.000686        57.15236
0.704                    1.00159        56.42074
0.708                   1.002195        55.67173
0.712                   1.002392        54.91385
0.716                   1.002146        54.15737
0.72                    1.001496        53.41257
0.724                   1.000551        52.68797
0.728                  0.9994733        51.98889
0.732                  0.9984491        51.31643
0.736                  0.9976572        50.66721
0.74                   0.9972375        50.03389
0.744                  0.9972657         49.4064
0.748                  0.9977388        48.77372
0.752                  0.9985762        48.12586
0.756                   0.999633        47.45559
0.76                    1.000725        46.75975
0.764                   1.001662        46.03979
0.768                   1.002278        45.30143
0.772                   1.002463        44.55376
0.776                   1.002183        43.80758
0.78                     1.00148        43.07369
0.784                   1.000475        42.36097
0.788                  0.9993371        41.67484
0.792                  0.9982653        41.01627
0.796                  0.9974464        40.38153
0.8                    0.9970258        39.76269
0.804                  0.9970795        39.14904
0.808                   0.997601        38.52893
0.812                  0.9985013        37.89188
0.816                  0.9996242        37.23044
0.82                    1.000774        36.54149
0.824                   1.001749        35.82682
0.828                   1.002376        35.09271
0.832                   1.002544         34.3489
0.836                   1.002217        33.60693
0.84                    1.001448        32.87817
0.844                   1.000366        32.17192
0.848                   0.999156         31.4937
0.852                  0.9980275         30.8443
0.856                  0.9971788        30.21945
0.86                   0.9967607        29.61054
0.864                  0.9968503        29.00602
0.868                  0.9974349         28.3935
0.872                  0.9984152        27.76191
0.876                   0.999621        27.10357
0.88                    1.000842        26.41544
0.884                   1.001863        25.69973
0.888                   1.002504        24.96342
0.892                   1.002648        24.21711
0.896                   1.002264        23.47317
0.9                     1.001414        22.74371
0.904                   1.000239        22.03847
0.908                  0.9989408        21.36311
0.912                  0.9977449        20.71814
0.916                  0.9968616        20.09869
0.92                   0.9964491        19.49525
0.924                   0.996584        18.89528
0.928                  0.9972474        18.28545
0.932                  0.9983261        17.65405
0.936                  0.9996335        16.99307
0.94                    1.000941        16.29962
0.944                   1.002019        15.57642
0.948                   1.002676        14.83131
0.952                   1.002791        14.07591
0.956                   1.002338        13.32361
0.96                    1.001388         12.5874
0.964                     1.0001        11.87757
0.968                  0.9986947        11.19994
0.972                  0.9974163         10.5547
0.976                  0.9964906        9.936214
0.98                   0.9960839        9.333902
0.984                  0.9962733        8.734027
0.988                  0.9970314        8.122142
0.992                  0.9982291        7.485711
0.996                  0.9996594        6.816347
1                       1.001072        6.111317
1.004                   1.002219        5.373981
1.008                   1.002895        4.613193
1.012                   1.002976        3.841787
1.016                   1.002438        3.074424
1.02                    1.001367        2.325136
1.024                  0.9999408        1.604928
1.028                  0.9984033       0.9198111
1.032                  0.9970219       0.2696092
1.036                  0.9960407      -0.3522004
1.04                   0.9956376      -0.9574944
1.044                    0.99589       -1.561476
1.048                  0.9967603       -2.179964
1.052                  0.9981015        -2.82652
1.056                  0.9996813       -3.510004
1.06                    1.001224       -4.233005
1.064                   1.002457       -4.991417
1.068                   1.003159       -5.775173
1.072                     1.0032       -6.569951
1.076                    1.00256       -7.359565
1.08                    1.001341       -8.128652
1.084                  0.9997442        -8.86533
1.088                  0.9980416       -9.563293
1.092                   0.996529       -10.22309
1.096                  0.9954745       -10.85226
1.1                    0.9950697       -11.46433
1.104                  0.9953942       -12.07626
1.108                  0.9963995       -12.70559
1.112                  0.9979157       -13.36719
1.116                  0.9996808       -14.07056
1.12                    1.001386       -14.81817
1.124                   1.002731       -15.60511
1.128                   1.003472       -16.41976
1.132                   1.003469       -17.24605
1.136                    1.00271       -18.06588
1.14                     1.00131        -18.8622
1.144                  0.9995006       -19.62194
1.148                  0.9975891       -20.33832
1.152                  0.9959071        -21.0123
1.156                   0.994753       -21.65271
1.16                    0.994338       -22.27488
1.164                  0.9947457       -22.89811
1.168                  0.9959154       -23.54213
1.172                    0.99765       -24.22351
1.176                  0.9996506       -24.95268
1.18                    1.001568       -25.73206
1.184                   1.003062       -26.55571
1.188                   1.003864       -27.41033
1.192                   1.003818       -28.27754
1.196                   1.002914       -29.13682
1.2                      1.00129       -29.96894
1.204                   0.999211       -30.75921
1.208                  0.9970288       -31.50011
1.212                  0.9951213       -32.19295
1.216                  0.9938277       -32.84801
1.22                    0.993386       -33.48303
1.224                  0.9938886        -34.1202
1.228                  0.9952609       -34.78213
1.232                  0.9972737       -35.48776
1.236                  0.9995811       -36.24883
1.24                     1.00178        -37.0679
1.244                   1.003481       -37.93784
1.248                   1.004376       -38.84323
1.252                   1.004288       -39.76277
1.256                   1.003208       -40.67284
1.26                    1.001298       -41.55122
1.264                  0.9988642       -42.38092
1.268                  0.9963173       -43.15321
1.272                  0.9940963       -43.86965
1.276                   0.992597       -44.54224
1.28                   0.9920974       -45.19176
1.284                  0.9927045       -45.84426
1.288                  0.9943309       -46.52632
1.292                  0.9967066       -47.26016
1.296                  0.9994242       -48.05958
1.3                      1.00201       -48.92748
1.304                   1.004006       -49.85548
1.308                   1.005046       -50.82542
1.312                   1.004921       -51.81224
1.316                   1.003618         -52.788
1.32                    1.001323       -53.72638
1.324                  0.9984025       -54.60696
1.328                  0.9953396       -55.41907
1.332                  0.9926616       -56.16413
1.336                  0.9908443       -56.85625
1.34                   0.9902272        -57.5202
1.344                  0.9909451        -58.1874
1.348                  0.9928982       -58.89012
1.352                  0.9957652       -59.65548
1.356                   0.999056       -60.50048
1.36                    1.002197       -61.42898
1.364                   1.004628       -62.43116
1.368                   1.005901       -63.48528
1.372                    1.00575       -64.56114
1.376                   1.004149       -65.62474
1.38                    1.001314       -66.64364
1.384                  0.9976831       -67.59219
1.388                  0.9938476       -68.45621
1.392                  0.9904606       -69.23646
1.396                  0.9881227        -69.9494
1.4                    0.9872719       -70.62542
1.404                  0.9880958        -71.3038
1.408                  0.9904878       -72.02553
1.412                  0.9940584       -72.82556
1.416                  0.9981986       -73.72635
1.42                    1.002185       -74.73382
1.424                   1.005303       -75.83662
1.428                   1.006966       -77.00818
1.432                   1.006815       -78.21087
1.436                   1.004784        -79.4016
1.44                    1.001122       -80.53829
1.444                  0.9963651       -81.58648
1.448                   0.991266       -82.52567
1.452                  0.9866764       -83.35414
1.456                  0.9834038       -84.09113
1.46                   0.9820613       -84.77526
1.464                   0.982943       -85.45846
1.468                  0.9859526        -86.1965
1.472                   0.990607        -87.0382
1.476                  0.9961129       -88.01626
1.48                    1.001502        -89.1414
1.484                   1.005792       -90.40111
1.488                   1.008152       -91.76199
1.492                   1.008037       -93.17491
1.496                   1.005285         -94.582
1.5                      1.00016       -95.92453
1.504                  0.9933409       -97.15172
1.508                  0.9858369       -98.22955
1.512                    0.97885       -99.14908
1.516                  0.9735786       -99.93166
1.52                   0.9709958       -100.6291
1.524                  0.9716463       -101.3168
1.528                   0.975509       -102.0802
1.532                  0.9819694        -102.998
1.536                  0.9899087       -104.1266
1.54                   0.9978891       -105.4904
1.544                   1.004389       -107.0791
1.548                   1.008044       -108.8505
1.552                   1.007857       -110.7372
1.556                   1.003359       -112.6553
1.56                   0.9947151       -114.5137
1.564                  0.9827516       -116.2255
1.568                  0.9689102       -117.7214
1.572                  0.9550967       -118.9656
1.576                  0.9434163       -119.9722
1.58                   0.9358037       -120.8156
1.584                  0.9336013       -121.6293
1.588                  0.9371897       -122.5864
1.592                  0.9457895       -123.8664
1.596                  0.9575054       -125.6204
1.6                    0.9695842       -127.9472
1.604                   0.978792       -130.8874
1.608                  0.9817958       -134.4308
1.612                  0.9754865       -138.5298
1.616                  0.9572103       -143.1125
1.62                   0.9249249       -148.0918
1.624                  0.8772892       -153.3679
1.628                  0.8137096       -158.8247
1.632                  0.7343563       -164.3164
1.636                    0.64017        -169.634
1.64                   0.5328896        -174.423
1.644                  0.4152143       -177.9483
1.648                  0.2915805       -178.2557
1.652                  0.1727343       -168.1143
1.656                  0.1097688       -121.3471
1.66                   0.1827751       -78.72958
1.664                  0.3033222       -70.23956
1.668                   0.427193       -71.02127
1.672                  0.5447025       -74.74766
1.676                  0.6515867       -79.65193
1.68                   0.7451756       -85.05196
1.684                  0.8237259       -90.61181
1.688                   0.886288       -96.12947
1.692                  0.9326882       -101.4612
1.696                  0.9635308       -106.4904
1.7                    0.9801885       -111.1152
1.704                  0.9847627       -115.2446
1.708                   0.979996       -118.8026
1.712                  0.9691199       -121.7378
1.716                   0.955613        -124.038
1.72                   0.9428618       -125.7458
1.724                  0.9337453       -126.9672
1.728                  0.9302228        -127.866
1.732                  0.9330466       -128.6366
1.736                  0.9417176        -129.465
1.74                   0.9547064       -130.4922
1.744                  0.9698639       -131.7936
1.748                  0.9848827       -133.3784
1.752                  0.9976931       -135.2033
1.756                   1.006743       -137.1897
1.76                    1.011154       -139.2412
1.764                   1.010772       -141.2574
1.768                   1.006134       -143.1455
1.772                  0.9983644       -144.8303
1.776                  0.9890001       -146.2641
1.78                   0.9797647       -147.4344
1.784                  0.9722976       -148.3682
1.788                  0.9678824       -149.1304
1.792                  0.9672274        -149.812
1.796                  0.9703531        -150.513
1.8                    0.9766182       -151.3215
1.804                  0.9848791       -152.2979
1.808                  0.9937262       -153.4664
1.812                   1.001744       -154.8158
1.816                   1.007738       -156.3057
1.82                    1.010899       -157.8762
1.824                   1.010897        -159.458
1.828                   1.007904       -160.9822
1.832                   1.002551       -162.3891
1.836                  0.9958225       -163.6367
1.84                   0.9889042       -164.7072
1.844                  0.9829898        -165.611
1.848                  0.9790822       -166.3859
1.852                  0.9778187       -167.0915
1.856                  0.9793619       -167.7976
1.86                   0.9833827       -168.5705
1.864                  0.9891381       -169.4608
1.868                  0.9956231       -170.4947
1.872                   1.001756       -171.6721
1.876                   1.006563       -172.9689
1.88                    1.009322       -174.3427
1.884                   1.009667       -175.7408
1.888                   1.007625       -177.1079
1.892                   1.003602        -178.394
1.896                  0.9983156       -179.5616
1.9                    0.9926821        179.4084
1.904                  0.9876643        178.5131
1.908                  0.9841119         177.727
1.912                  0.9826138         177.006
1.916                  0.9833941        176.2955
1.92                   0.9862781        175.5407
1.924                  0.9907331        174.6969
1.928                  0.9959755        173.7376
1.932                   1.001115        172.6574
1.936                    1.00531        171.4717
1.94                    1.007898        170.2127
1.944                   1.008497        168.9233
1.948                   1.007054        167.6504
1.952                   1.003845        166.4382
1.956                  0.9994309        165.3215
1.96                   0.9945674        164.3201
1.964                  0.9900803        163.4356
1.968                  0.9867293        162.6497
1.972                  0.9850749        161.9275
1.976                  0.9853798        161.2232
1.98                    0.987564        160.4889
1.984                  0.9912252        159.6837
1.988                  0.9957169        158.7805
1.992                   1.000269        157.7707
1.996                   1.004122         156.664
2                       1.006648        155.4858
2.004                   1.007452        154.2728
2.008                   1.006425        153.0666
2.012                   1.003756        151.9077
2.016                  0.9999027        150.8295
2.02                   0.9955153        149.8526
2.024                  0.9913343        148.9818
2.028                  0.9880655        148.2038
2.032                  0.9862581        147.4898
2.036                  0.9862077        146.7997
2.04                   0.9879028        146.0898
2.044                  0.9910316        145.3211
2.048                  0.9950405         144.466
2.052                  0.9992371        143.5129
2.056                   1.002911        142.4674
2.06                    1.005453        141.3504
2.064                   1.006447        140.1941
2.068                   1.005738        139.0366
2.072                   1.003447        137.9163
2.076                  0.9999568        136.8662
2.08                    0.995847        135.9083
2.084                  0.9918039        135.0499
2.088                  0.9885055        134.2819
2.092                  0.9865057        133.5796
2.096                  0.9861353        132.9069
2.1                    0.9874426        132.2225
2.104                  0.9901855        131.4879
2.108                  0.9938775        130.6743
2.112                  0.9978767        129.7674
2.116                   1.001498         128.769
2.12                     1.00413        127.6966
2.124                   1.005327        126.5789
2.128                   1.004886        125.4523
2.132                   1.002869        124.3542
2.136                  0.9995967         123.318
2.14                   0.9955999        122.3678
2.144                  0.9915334        121.5138
2.148                  0.9880708        120.7506
2.152                  0.9857887        120.0569
2.156                  0.9850648        119.3992
2.16                   0.9860087        118.7371
2.164                  0.9884416        118.0314
2.168                  0.9919289        117.2509
2.172                   0.995859         116.378
2.176                  0.9995502        115.4107
2.18                    1.002365        114.3631
2.184                   1.003813        113.2618
2.188                    1.00363        112.1418
2.192                   1.001814        111.0412
2.196                   0.998631        109.9951
2.2                    0.9945722        109.0306
2.204                  0.9902821        108.1619
2.208                  0.9864538        107.3875
2.212                  0.9837127        106.6894
2.216                  0.9825066        106.0355
2.22                   0.9830232        105.3853
2.224                  0.9851532         104.697
2.228                  0.9885087        103.9351
2.232                  0.9924912        103.0769
2.236                  0.9963961         102.116
2.24                   0.9995308        101.0624
2.244                   1.001327        99.94069
2.248                    1.00143        98.78588
2.252                  0.9997533        97.63775
2.256                  0.9964969        96.53528
2.26                    0.992119        95.51064
2.264                   0.987271        94.58388
2.268                  0.9826978        93.75888
2.272                  0.9791162        93.02153
2.276                  0.9770903        92.34108
2.28                   0.9769274         91.6747
2.284                  0.9786168        90.97507
2.288                  0.9818264        90.19893
2.292                  0.9859569        89.31491
2.296                  0.9902442        88.30862
2.3                    0.9938861        87.18445
2.304                  0.9961711         85.9642
2.308                  0.9965897        84.68326
2.312                  0.9949132        83.38531
2.316                  0.9912339        82.11607
2.32                   0.9859596         80.9168
2.324                  0.9797635        79.81771
2.328                  0.9734896        78.83218
2.332                   0.968024        77.95277
2.336                  0.9641463        77.15021
2.34                   0.9623866        76.37663
2.344                  0.9629176        75.57299
2.348                  0.9655089        74.67928
2.352                   0.969553        73.64523