! TOUCHSTONE file generated by CST MICROWAVE STUDIO
! Date and time: Tue Jun 14 11:51:06 2022
! Project name: AppElm_antenne_patch_FR4.cst
! Parameters = {L=54; W=58.5; e=0.035; h=1.6; lambda=0.190476; ls=120; w0=2.54; w1=0.847; ws=120; y0=18; y1=23.8}
! Header version: 2018
! Port assignment regex: !\s*Touchstone port\s*([0-9]+)\s*=\s*(CST MWS port|CST DS port)\s*([0-9]+|Zmin|Zmax)\s*\(\"(.*)\"\)(\s*mode\s*([0-9]+))?.*
! Touchstone port assignment:
! Touchstone port 1 = CST MWS port 1 ("")
# GHz S MA R 50
0                      0.9753284              -0
0.004                  0.9768485       -11.61109
0.008                  0.9811824       -23.07648
0.012                  0.9876919       -34.26185
0.016                  0.9954391       -45.05265
0.02                    1.003343       -55.35806
0.024                   1.010346       -65.11062
0.028                   1.015559       -74.26329
0.032                   1.018377       -82.78541
0.036                   1.018545       -90.65957
0.04                    1.016179       -97.87987
0.044                   1.011738        -104.452
0.048                   1.005957       -110.3947
0.052                  0.9997399       -115.7421
0.056                  0.9940291       -120.5453
0.06                   0.9896574       -124.8714
0.064                  0.9872205       -128.8007
0.068                  0.9869836       -132.4191
0.072                  0.9888474         -135.81
0.076                  0.9923801       -139.0448
0.08                   0.9969082       -142.1764
0.084                    1.00164        -145.236
0.088                   1.005802       -148.2334
0.092                    1.00876       -151.1607
0.096                   1.010105       -153.9974
0.1                     1.009707       -156.7165
0.104                   1.007718       -159.2909
0.108                    1.00454       -161.6992
0.112                   1.000751         -163.93
0.116                   0.997012       -165.9858
0.12                   0.9939517       -167.8836
0.124                  0.9920649       -169.6534
0.128                  0.9916278       -171.3341
0.132                  0.9926568       -172.9672
0.136                  0.9949134       -174.5901
0.14                   0.9979572       -176.2306
0.144                   1.001232       -177.9027
0.148                   1.004165       -179.6064
0.152                   1.006268        178.6714
0.156                    1.00721         176.953
0.16                     1.00687        175.2656
0.164                   1.005344        173.6364
0.168                   1.002931        172.0879
0.172                    1.00007        170.6339
0.176                  0.9972714        169.2769
0.18                   0.9950244        168.0074
0.184                  0.9937114         166.805
0.188                  0.9935428        165.6419
0.192                  0.9945211        164.4883
0.196                  0.9964453        163.3171
0.2                    0.9989529        162.1088
0.204                   1.001589        160.8549
0.208                   1.003888        159.5582
0.212                   1.005457        158.2316
0.216                   1.006037        156.8958
0.22                    1.005546        155.5753
0.224                   1.004089        154.2939
0.228                   1.001935         153.071
0.232                  0.9994712        151.9182
0.236                  0.9971363        150.8371
0.24                   0.9953415        149.8187
0.244                  0.9943983        148.8452
0.248                  0.9944631        147.8926
0.252                  0.9955098        146.9355
0.256                  0.9973379        145.9519
0.26                    0.999611        144.9264
0.264                    1.00192        143.8535
0.268                   1.003859        142.7376
0.272                    1.00509        141.5923
0.276                   1.005408        140.4371
0.28                    1.004766        139.2947
0.284                   1.003287        138.1865
0.288                   1.001236        137.1294
0.292                  0.9989803        136.1329
0.296                  0.9969204        135.1969
0.3                    0.9954217        134.3118
0.304                  0.9947475        133.4601
0.308                  0.9950128        132.6195
0.312                  0.9961629         131.767
0.316                  0.9979858        130.8832
0.32                    1.000151        129.9555
0.324                   1.002273        128.9807
0.328                   1.003977        127.9647
0.332                   1.004966        126.9215
0.336                    1.00507        125.8706
0.34                    1.004277        124.8336
0.344                   1.002729        123.8304
0.348                   1.000701        122.8761
0.352                  0.9985518        121.9781
0.356                  0.9966631        121.1348
0.36                   0.9953707        120.3356
0.364                  0.9949035        119.5627
0.368                  0.9953429        118.7943
0.372                  0.9966067        118.0087
0.376                  0.9984658        117.1882
0.38                    1.000587        116.3224
0.384                   1.002592        115.4098
0.388                   1.004129        114.4577
0.392                   1.004926        113.4811
0.396                   1.004848        112.4996
0.4                     1.003907        111.5342
0.404                   1.002269         110.604
0.408                   1.000224        109.7226
0.412                  0.9981326        108.8957
0.416                  0.9963661          108.12
0.42                   0.9952403        107.3839
0.424                  0.9949569        106.6686
0.428                  0.9955668        105.9525
0.432                  0.9969603        105.2146
0.436                  0.9988879        104.4384
0.44                    1.001006        103.6152
0.444                   1.002939        102.7452
0.448                   1.004346        101.8373
0.452                   1.004979        100.9073
0.456                   1.004726        99.97551
0.46                     1.00363        99.06285
0.464                   1.001882        98.18759
0.468                  0.9997873        97.36212
0.472                  0.9977167        96.59074
0.476                  0.9960377        95.86857
0.48                   0.9950515        95.18234
0.484                  0.9949362        94.51256
0.488                  0.9957141        93.83708
0.492                  0.9972473        93.13534
0.496                  0.9992627        92.39192
0.5                     1.001402        91.59951
0.504                   1.003285        90.75997
0.508                    1.00458        89.88371
0.512                   1.005057        88.98795
0.516                   1.004628        88.09359
0.52                    1.003367        87.22176
0.524                    1.00149        86.39024
0.528                  0.9993251        85.61035
0.532                  0.9972554        84.88489
0.536                  0.9956496        84.20731
0.54                    0.994797        83.56265
0.544                  0.9948542         82.9302
0.548                  0.9958144        82.28723
0.552                   0.997509        81.61326
0.556                  0.9996375        80.89379
0.56                    1.001822        80.12295
0.564                   1.003677        79.30424
0.568                   1.004872        78.44987
0.572                   1.005194        77.57847
0.576                   1.004583        76.71191
0.58                    1.003139        75.87172
0.584                   1.001111        75.07535
0.588                  0.9988527        74.33315
0.592                  0.9967638        73.64633
0.596                  0.9952172        73.00653
0.6                    0.9944932        72.39695
0.604                  0.9947267        71.79538
0.608                  0.9958808        71.17827
0.612                   0.997753         70.5251
0.616                   1.000012        69.82222
0.62                    1.002256        69.06513
0.624                   1.004089        68.25921
0.628                   1.005183        67.41855
0.632                   1.005341        66.56348
0.636                   1.004528        65.71708
0.64                    1.002878        64.90142
0.644                   1.000675        64.13371
0.648                  0.9983028        63.42334
0.652                   0.996181        62.76987
0.656                  0.9946907        62.16284
0.66                   0.9941041        61.58334
0.664                  0.9945337        61.00739
0.668                  0.9959091        60.41038
0.672                    0.99799        59.77162
0.676                   1.000409        59.07819
0.68                    1.002737         58.3272
0.684                   1.004561        57.52602
0.688                   1.005555        56.69089
0.692                   1.005538        55.84411
0.696                   1.004502        55.01025
0.7                     1.002619        54.21209
0.704                   1.000211        53.46679
0.708                  0.9976992        52.78267
0.712                  0.9955276         52.1575
0.716                  0.9940884        51.57849
0.72                   0.9936466        51.02431
0.724                  0.9942905        50.46886
0.728                  0.9959132        49.88619
0.732                  0.9982309        49.25533
0.736                   1.000834        48.56417
0.74                    1.003261        47.81145
0.744                   1.005079        47.00686
0.748                   1.005962        46.16911
0.752                   1.005745         45.3228
0.756                    1.00445        44.49426
0.76                    1.002292        43.70729
0.764                  0.9996399        42.97897
0.768                  0.9969555        42.31659
0.772                   0.994716        41.71588
0.776                  0.9933272        41.16132
0.78                   0.9930485        40.62868
0.784                  0.9939412        40.08933
0.788                  0.9958565        39.51564
0.792                  0.9984596         38.8862
0.796                   1.001291        38.18968
0.8                     1.003849        37.42673
0.804                   1.005677        36.60962
0.808                   1.006445           35.76
0.812                   1.006002         34.9052
0.816                    1.00441        34.07374
0.82                    1.001929        33.29071
0.824                  0.9989837        32.57334
0.828                  0.9960873        31.92776
0.832                  0.9937563        31.34738
0.836                   0.992416         30.8135
0.84                   0.9923207        30.29839
0.844                  0.9935025        29.77032
0.848                  0.9957629        29.19955
0.852                  0.9987074          28.564
0.856                   1.001816        27.85318
0.86                    1.004536         27.0699
0.864                   1.006382        26.22951
0.868                   1.007014        25.35714
0.872                   1.006301        24.48346
0.876                   1.004344        23.63978
0.88                    1.001462         22.8529
0.884                  0.9981458        22.14041
0.888                  0.9949731        21.50723
0.892                  0.9925112        20.94402
0.896                  0.9912129        20.42821
0.9                    0.9913297        19.92773
0.904                  0.9928603        19.40687
0.908                  0.9955472        18.83314
0.912                  0.9989218        18.18339
0.916                   1.002389        17.44799
0.92                    1.005332        16.63226
0.924                   1.007223        15.75525
0.928                   1.007709        14.84633
0.932                   1.006676        13.94046
0.936                   1.004274        13.07252
0.94                    1.000892        12.27171
0.944                  0.9971022        11.55637
0.948                  0.9935672        10.93014
0.952                   0.990922        10.38043
0.956                  0.9896583        9.879827
0.96                   0.9900293        9.390646
0.964                  0.9919949        8.871951
0.968                  0.9952252        8.287459
0.972                  0.9991576        7.612435
0.976                   1.003098        6.838076
0.98                    1.006346        5.972703
0.984                   1.008312        5.039959
0.988                   1.008622        4.074702
0.992                   1.007179        3.117444
0.996                   1.004188        2.208025
1                       1.000129        1.379169
1.004                   0.995683       0.6506369
1.008                   0.991625      0.02487575
1.012                  0.9886868      -0.5146995
1.016                   0.987421        -1.00186
1.02                   0.9880915       -1.481908
1.024                  0.9906141       -2.003133
1.028                  0.9945657       -2.607371
1.032                  0.9992593       -3.322008
1.036                   1.003867       -4.155215
1.04                    1.007565       -5.095031
1.044                   1.009676       -6.111892
1.048                   1.009784       -7.163643
1.052                   1.007807       -8.202063
1.056                   1.004017       -9.180188
1.06                   0.9990101       -10.05979
1.064                  0.9936188       -10.81835
1.068                  0.9887804       -11.45433
1.072                  0.9853724        -11.9893
1.076                   0.984048        -12.4659
1.08                   0.9850999       -12.94052
1.084                  0.9883933       -13.47256
1.088                  0.9933799       -14.11261
1.092                   0.999195       -14.89273
1.096                   1.004812       -15.82097
1.1                     1.009221       -16.88088
1.104                   1.011603        -18.0348
1.108                    1.01146       -19.23019
1.112                   1.008709       -20.40745
1.116                   1.003704       -21.50839
1.12                   0.9972032       -22.48538
1.124                   0.990262       -23.31011
1.128                  0.9840739       -23.98063
1.132                  0.9797618       -24.52501
1.136                  0.9781625       -24.99893
1.14                   0.9796492       -25.47663
1.144                  0.9840354       -26.03639
1.148                  0.9905951       -26.74457
1.152                  0.9981895       -27.64269
1.156                    1.00547       -28.74066
1.16                    1.011111       -30.01652
1.164                   1.014029        -31.4213
1.168                   1.013557       -32.88685
1.172                   1.009558       -34.33521
1.176                   1.002476       -35.68892
1.18                   0.9932978       -36.88229
1.184                  0.9834412       -37.87346
1.188                  0.9745515       -38.65557
1.192                  0.9682251        -39.2643
1.196                   0.965699       -39.77724
1.2                    0.9675736       -40.30237
1.204                  0.9736496       -40.95678
1.208                  0.9829307       -41.84192
1.212                  0.9937957       -43.02353
1.216                   1.004285       -44.52165
1.22                    1.012428       -46.31096
1.224                   1.016549       -48.32799
1.228                   1.015519       -50.48143
1.232                   1.008926       -52.66311
1.236                  0.9971817       -54.75949
1.24                   0.9815369         -56.665
1.244                  0.9639974       -58.29933
1.248                  0.9471105       -59.62875
1.252                  0.9335952       -60.68842
1.256                  0.9258331       -61.59627
1.26                   0.9253064       -62.54645
1.264                  0.9321572       -63.77633
1.268                  0.9450307       -65.51692
1.272                  0.9612697       -67.94853
1.276                  0.9773586       -71.18003
1.28                   0.9894479       -75.25361
1.284                  0.9938206        -80.1652
1.288                  0.9872371       -85.88893
1.292                   0.967166       -92.39935
1.296                  0.9319285       -99.69096
1.3                    0.8807932       -107.7979
1.304                  0.8140605       -116.8212
1.308                  0.7331805       -126.9736
1.312                   0.641004       -138.6649
1.316                  0.5423699       -152.6651
1.32                    0.445511         -170.38
1.324                  0.3649702        166.0305
1.328                  0.3237952        135.5189
1.332                  0.3409455        103.1724
1.336                  0.4077155        76.49556
1.34                   0.4997663         56.5425
1.344                  0.5988016        41.15889
1.348                  0.6943454        28.58635
1.352                  0.7803623        17.82101
1.356                   0.853266        8.324806
1.36                   0.9110591      -0.1859209
1.364                  0.9529741        -7.85318
1.368                  0.9793122       -14.73613
1.372                  0.9913506       -20.84397
1.376                  0.9912577       -26.15775
1.38                   0.9819745        -30.6492
1.384                  0.9670284       -34.30146
1.388                  0.9502454       -37.13272
1.392                  0.9353388       -39.21959
1.396                  0.9254044       -40.71047
1.4                    0.9224226       -41.81721
1.404                  0.9269356       -42.78024
1.408                  0.9380414       -43.81881
1.412                   0.953717        -45.0883
1.416                  0.9713454       -46.66151
1.42                   0.9882573       -48.53462
1.424                   1.002168        -50.6468
1.428                   1.011455       -52.90272
1.432                   1.015299       -55.19159
1.436                   1.013711       -57.40194
1.44                    1.007467       -59.43346
1.444                  0.9979784       -61.20785
1.448                  0.9870767       -62.67929
1.452                  0.9767459       -63.84347
1.456                  0.9688061       -64.74201
1.46                   0.9646034       -65.45828
1.464                  0.9647744        -66.1027
1.468                    0.96915       -66.79013
1.472                  0.9768302       -67.61618
1.476                   0.986401       -68.64019
1.48                   0.9962291       -69.87883
1.484                   1.004755       -71.30956
1.488                   1.010735       -72.87987
1.492                   1.013402       -74.51885
1.496                   1.012542       -76.14861
1.5                     1.008497       -77.69482
1.504                   1.002092        -79.0962
1.508                  0.9945026       -80.31317
1.512                  0.9870683       -81.33458
1.516                  0.9810725       -82.18093
1.52                   0.9775241       -82.90214
1.524                  0.9769787       -83.56896
1.528                  0.9794485         -84.259
1.532                  0.9844179        -85.0413
1.536                  0.9909634        -85.9636
1.54                   0.9979407       -87.04531
1.544                   1.004194        -88.2772
1.548                   1.008746       -89.62587
1.552                   1.010939        -91.0412
1.556                   1.010521       -92.46494
1.56                    1.007664       -93.83928
1.564                   1.002926       -95.11493
1.568                  0.9971574       -96.25827
1.572                  0.9913641       -97.25699
1.576                  0.9865403       -98.12278
1.58                   0.9834988       -98.89014
1.584                  0.9827287       -99.61053
1.588                  0.9843124       -100.3426
1.592                  0.9879213       -101.1408
1.596                  0.9928885       -102.0453
1.6                    0.9983423       -103.0755
1.604                   1.003365       -104.2286
1.608                   1.007148       -105.4814
1.612                   1.009115       -106.7961
1.616                   1.009004       -108.1264
1.62                    1.006894       -109.4251
1.624                   1.003189       -110.6504
1.628                  0.9985439       -111.7728
1.632                   0.993763       -112.7795
1.636                   0.989663       -113.6771
1.64                   0.9869348       -114.4908
1.644                  0.9860243       -115.2607
1.648                  0.9870542       -116.0339
1.652                  0.9898091       -116.8558
1.656                  0.9937828       -117.7617
1.66                   0.9982768       -118.7707
1.664                   1.002529       -119.8839
1.668                   1.005841       -121.0848
1.672                   1.007693       -122.3434
1.676                   1.007816       -123.6218
1.68                     1.00623       -124.8796
1.684                   1.003233       -126.0805
1.688                  0.9993503       -127.1973
1.692                  0.9952492        -128.217
1.696                  0.9916281       -129.1423
1.7                    0.9890979       -129.9926
1.704                  0.9880766          -130.8
1.708                  0.9887164       -131.6041
1.712                  0.9908804       -132.4441
1.716                  0.9941731       -133.3521
1.72                   0.9980164       -134.3471
1.724                   1.001756       -135.4328
1.728                   1.004771       -136.5976
1.732                   1.006579       -137.8172
1.736                   1.006903       -139.0595
1.74                    1.005719       -140.2892
1.744                   1.003246       -141.4734
1.748                  0.9999145       -142.5869
1.752                  0.9962951       -143.6158
1.756                  0.9930016       -144.5604
1.76                   0.9905901       -145.4352
1.764                   0.989462       -146.2669
1.768                  0.9897937       -147.0894
1.772                  0.9915087       -147.9379
1.776                  0.9942943        -148.842
1.78                   0.9976615       -149.8209
1.784                   1.001034       -150.8804
1.788                   1.003849       -152.0125
1.792                   1.005645       -153.1975
1.796                   1.006142       -154.4075
1.8                     1.005275       -155.6109
1.804                   1.003203       -156.7777
1.808                   1.000285       -157.8833
1.812                  0.9970164       -158.9136
1.816                  0.9939511       -159.8663
1.82                   0.9916063       -160.7525
1.824                  0.9903739       -161.5946
1.828                  0.9904528       -162.4224
1.832                  0.9918146        -163.268
1.836                  0.9942115       -164.1595
1.84                   0.9972229       -165.1164
1.844                   1.000332       -166.1462
1.848                   1.003016        -167.244
1.852                   1.004831       -168.3935
1.856                   1.005485       -169.5702
1.86                     1.00488       -170.7454
1.864                   1.003128       -171.8908
1.868                   1.000529       -172.9827
1.872                  0.9975217       -174.0059
1.876                  0.9946139       -174.9565
1.88                   0.9922957       -175.8424
1.884                  0.9909563       -176.6829
1.888                  0.9908155       -177.5045
1.892                  0.9918861        -178.337
1.896                  0.9939725       -179.2076
1.9                    0.9967085        179.8638
1.904                  0.9996226         178.868
1.908                   1.002221        177.8075
1.912                   1.004069        176.6957
1.916                   1.004862        175.5544
1.92                    1.004474        174.4102
1.924                   1.002975        173.2902
1.928                   1.000616        172.2176
1.932                  0.9977931        171.2087
1.936                   0.994981         170.269
1.94                   0.9926519         169.393
1.944                  0.9911974        168.5644
1.948                  0.9908588        167.7586
1.952                  0.9916849        166.9477
1.956                  0.9935242         166.105
1.96                   0.9960531        165.2099
1.964                  0.9988341        164.2517
1.968                   1.001392        163.2304
1.972                   1.003295        162.1573
1.976                   1.004223        161.0521
1.98                    1.004022        159.9396
1.984                   1.002724        158.8464
1.988                   1.000543        157.7958
1.992                  0.9978397        156.8049
1.996                  0.9950658        155.8812
2                      0.9926857        155.0211
2.004                  0.9910988        154.2105
2.008                  0.9905702        153.4267
2.012                  0.9911822        152.6426
2.016                  0.9928208        151.8316
2.02                   0.9951965        150.9722
2.024                  0.9978951        150.0519
2.028                   1.000451        149.0689
2.032                   1.002426        148.0323
2.036                   1.003482        146.9603
2.04                    1.003435        145.8768
2.044                   1.002281        144.8079
2.048                   1.000205        143.7779
2.052                  0.9975429        142.8049
2.056                  0.9947326        141.8982
2.06                   0.9922411        141.0562
2.064                  0.9904848        140.2664
2.068                  0.9897562        139.5074
2.072                  0.9901726        138.7524
2.076                   0.991653        137.9741
2.08                    0.993933        137.1496
2.084                  0.9966113        136.2643
2.088                  0.9992203        135.3147
2.092                   1.001305        134.3081
2.096                   1.002499        133.2614
2.1                     1.002585        132.1983
2.104                   1.001527        131.1455
2.108                   0.999481        130.1282
2.112                  0.9967695        129.1665
2.116                  0.9938294        128.2716
2.12                   0.9911429        127.4438
2.124                   0.989155        126.6721
2.128                  0.9881952        125.9354
2.132                  0.9884184        125.2065
2.136                   0.989774        124.4565
2.14                   0.9920147        123.6602
2.144                  0.9947384        122.8008
2.148                  0.9974593        121.8724
2.152                  0.9996894        120.8809
2.156                   1.001022        119.8427
2.16                    1.001196         118.782
2.164                   1.000142        117.7269
2.168                  0.9979932        116.7049
2.172                  0.9950685        115.7387
2.176                  0.9918226         114.842
2.18                   0.9887736        114.0173
2.184                  0.9864159        113.2544
2.188                  0.9851333        112.5318
2.192                  0.9851276        111.8204
2.196                   0.986379         111.088
2.2                    0.9886463         110.306
2.204                  0.9915073        109.4539
2.208                  0.9944314        108.5231
2.212                  0.9968706        107.5181
2.216                  0.9983509        106.4555
2.22                   0.9985515        105.3613
2.224                  0.9973585        104.2665
2.228                  0.9948873        103.2026
2.232                  0.9914696        102.1965
2.236                  0.9876047        101.2657
2.24                    0.983882         100.415
2.244                  0.9808824        99.63463
2.248                  0.9790756        98.90116
2.252                  0.9787306        98.18091
2.256                  0.9798606        97.43575
2.26                   0.9822123        96.63015
2.264                   0.985306        95.73771
2.268                  0.9885166        94.74573
2.272                  0.9911785        93.65723
2.276                  0.9926983        92.49017
2.28                   0.9926523        91.27445
2.284                  0.9908601        90.04723
2.288                  0.9874197        88.84733
2.292                  0.9827036        87.70915
2.296                  0.9773093        86.65661
2.3                    0.9719709        85.69823
2.304                  0.9674385        84.82368
2.308                  0.9643437        84.00385
2.312                  0.9630741        83.19442
2.316                  0.9636864        82.34313
2.32                   0.9658765        81.39917
2.324                  0.9690191        80.32261
2.328                  0.9722655        79.09128
2.332                  0.9746825        77.70424
2.336                  0.9754026        76.18126
2.34                   0.9737634        74.55947
2.344                  0.9694179        72.88761
2.348                     0.9624        71.21899
2.352                    0.95314        69.60338