! TOUCHSTONE file generated by CST MICROWAVE STUDIO
! Date and time: Tue Jun 14 11:50:57 2022
! Project name: AppElm_antenne_patch_FR4.cst
! Parameters = {L=33.75; W=58.5; e=0.035; h=1.6; lambda=0.190476; ls=120; w0=2.54; w1=0.847; ws=120; y0=18; y1=23.8}
! Header version: 2018
! Port assignment regex: !\s*Touchstone port\s*([0-9]+)\s*=\s*(CST MWS port|CST DS port)\s*([0-9]+|Zmin|Zmax)\s*\(\"(.*)\"\)(\s*mode\s*([0-9]+))?.*
! Touchstone port assignment:
! Touchstone port 1 = CST MWS port 1 ("")
# GHz S MA R 50
0                      0.9983298              -0
0.004                   0.998447       -7.830547
0.008                  0.9987803       -15.61374
0.012                  0.9992785       -23.30373
0.016                  0.9998645       -30.85753
0.02                    1.000449       -38.23622
0.024                   1.000943       -45.40586
0.028                   1.001274       -52.33818
0.032                   1.001395       -59.01094
0.036                    1.00129       -65.40819
0.04                    1.000983       -71.52019
0.044                   1.000524       -77.34324
0.048                   0.999988       -82.87931
0.052                  0.9994599       -88.13543
0.056                  0.9990213       -93.12296
0.06                   0.9987379       -97.85648
0.064                  0.9986486       -102.3528
0.068                  0.9987608       -106.6297
0.072                  0.9990491       -110.7048
0.076                  0.9994612       -114.5944
0.08                   0.9999263       -118.3132
0.084                   1.000368       -121.8734
0.088                   1.000715       -125.2849
0.092                   1.000915       -128.5554
0.096                   1.000943       -131.6914
0.1                     1.000799       -134.6981
0.104                   1.000517       -137.5807
0.108                   1.000148       -140.3448
0.112                  0.9997579       -142.9968
0.116                  0.9994155       -145.5443
0.12                   0.9991776       -147.9954
0.124                  0.9990826       -150.3595
0.128                  0.9991434       -152.6456
0.132                  0.9993459       -154.8624
0.136                  0.9996523       -157.0176
0.14                    1.000008       -159.1172
0.144                   1.000351       -161.1654
0.148                   1.000623        -163.165
0.152                   1.000781       -165.1169
0.156                   1.000799       -167.0212
0.16                     1.00068       -168.8773
0.164                   1.000446       -170.6849
0.168                   1.000142       -172.4444
0.172                  0.9998225        -174.157
0.176                  0.9995437       -175.8253
0.18                   0.9993536        -177.453
0.184                  0.9992841       -179.0445
0.188                  0.9993453        179.3954
0.192                  0.9995243        177.8618
0.196                  0.9997876        176.3511
0.2                     1.000088        174.8602
0.204                   1.000372        173.3876
0.208                    1.00059        171.9333
0.212                   1.000705        170.4982
0.216                   1.000698        169.0841
0.22                    1.000571        167.6928
0.224                    1.00035         166.326
0.228                   1.000072        164.9848
0.232                   0.999789        163.6689
0.236                  0.9995489        162.3772
0.24                   0.9993941        161.1072
0.244                  0.9993505        159.8559
0.248                  0.9994244        158.6196
0.252                  0.9996014        157.3952
0.256                  0.9998489          156.18
0.26                    1.000122        154.9721
0.264                   1.000372        153.7712
0.268                   1.000556        152.5778
0.272                    1.00064        151.3936
0.276                   1.000611        150.2207
0.28                    1.000474        149.0615
0.284                   1.000254        147.9178
0.288                  0.9999907         146.791
0.292                  0.9997297         145.681
0.296                  0.9995171         144.587
0.3                    0.9993904        143.5069
0.304                  0.9993707         142.438
0.308                  0.9994609        141.3774
0.312                  0.9996438        140.3223
0.316                  0.9998868        139.2706
0.32                    1.000146         138.221
0.324                   1.000375        137.1736
0.328                   1.000534        136.1293
0.332                   1.000595        135.0901
0.336                   1.000547        134.0582
0.34                    1.000398        133.0361
0.344                   1.000176        132.0257
0.348                  0.9999204        131.0282
0.352                  0.9996751        130.0435
0.356                  0.9994841        129.0709
0.36                   0.9993807        128.1082
0.364                  0.9993828        127.1531
0.368                  0.9994899        126.2027
0.372                   0.999682        125.2546
0.376                  0.9999252        124.3069
0.38                    1.000176        123.3588
0.384                    1.00039        122.4106
0.388                   1.000529        121.4636
0.392                   1.000569        120.5196
0.396                   1.000503        119.5812
0.4                     1.000342        118.6508
0.404                   1.000116        117.7301
0.408                  0.9998637        116.8203
0.412                  0.9996304        115.9212
0.416                   0.999457        115.0319
0.42                   0.9993743        114.1503
0.424                  0.9993967         113.274
0.428                  0.9995201        112.4004
0.432                  0.9997226         111.527
0.436                  0.9999678        110.6524
0.44                    1.000213         109.776
0.444                   1.000413        108.8982
0.448                   1.000534        108.0204
0.452                   1.000554        107.1449
0.456                    1.00047        106.2741
0.46                    1.000296        105.4103
0.464                   1.000063        104.5552
0.468                  0.9998121        103.7098
0.472                  0.9995879        102.8739
0.476                  0.9994302        102.0463
0.48                   0.9993664        101.2249
0.484                  0.9994082        100.4073
0.488                  0.9995479        99.59075
0.492                  0.9997606        98.77319
0.496                   1.000009        97.95323
0.5                     1.000248        97.13045
0.504                   1.000436        96.30557
0.508                   1.000539        95.48021
0.512                   1.000539        94.65662
0.516                   1.000435        93.83733
0.52                    1.000246        93.02458
0.524                   1.000005        92.22002
0.528                  0.9997548        91.42439
0.532                  0.9995389        90.63732
0.536                  0.9993957        89.85746
0.54                   0.9993506        89.08264
0.544                  0.9994116        88.31033
0.548                  0.9995676        87.53797
0.552                   0.999791        86.76351
0.556                   1.000042        85.98575
0.56                    1.000275        85.20452
0.564                    1.00045        84.42068
0.568                   1.000535        83.63608
0.572                   1.000514        82.85307
0.576                   1.000391        82.07416
0.58                    1.000187        81.30155
0.584                  0.9999376        80.53682
0.588                  0.9996872        79.78048
0.592                  0.9994796        79.03199
0.596                  0.9993516         78.2898
0.6                    0.9993257        77.55166
0.604                  0.9994064        76.81493
0.608                  0.9995794        76.07711
0.612                  0.9998137        75.33631
0.616                   1.000068        74.59144
0.62                    1.000296        73.84258
0.624                   1.000457        73.09079
0.628                   1.000523        72.33809
0.632                   1.000481        71.58692
0.636                   1.000337        70.83984
0.64                    1.000118        70.09898
0.644                  0.9998608        69.36573
0.648                  0.9996111        68.64047
0.652                  0.9994127        67.92244
0.656                  0.9993008        67.20992
0.66                   0.9992953        66.50047
0.664                  0.9993969        65.79145
0.668                  0.9995875         65.0804
0.672                  0.9998331         64.3655
0.676                    1.00009         63.6459
0.68                    1.000312        62.92186
0.684                   1.000459         62.1947
0.688                   1.000505        61.46655
0.692                   1.000441        60.73997
0.696                   1.000277        60.01755
0.7                     1.000043        59.30135
0.704                  0.9997779        58.59261
0.708                  0.9995296        57.89149
0.712                  0.9993417          57.197
0.716                  0.9992474        56.50723
0.72                   0.9992634        55.81965
0.724                  0.9993867        55.13152
0.728                  0.9995954        54.44045
0.732                  0.9998523        53.74474
0.736                   1.000111        53.04373
0.74                    1.000326        52.33792
0.744                   1.000459        51.62883
0.748                   1.000484        50.91878
0.752                   1.000397        50.21045
0.756                   1.000212        49.50637
0.76                   0.9999618        48.80856
0.764                  0.9996901        48.11808
0.768                  0.9994444        47.43487
0.772                  0.9992682        46.75772
0.776                  0.9991927        46.08452
0.78                   0.9992313        45.41261
0.784                  0.9993772        44.73919
0.788                  0.9996043        44.06193
0.792                  0.9998721        43.37927
0.796                   1.000133        42.69077
0.8                     1.000339        41.99716
0.804                   1.000455        41.30018
0.808                   1.000458        40.60231
0.812                   1.000347        39.90634
0.816                   1.000141         39.2148
0.82                   0.9998759         38.5296
0.824                  0.9995978         37.8516
0.828                  0.9993558        37.18053
0.832                  0.9991927        36.51494
0.836                  0.9991374        35.85252
0.84                   0.9991997        35.19047
0.844                  0.9993687        34.52596
0.848                  0.9996143        33.85671
0.852                  0.9998926        33.18134
0.856                   1.000154        32.49963
0.86                    1.000351        31.81252
0.864                   1.000449        31.12201
0.868                   1.000428        30.43075
0.872                   1.000293        29.74159
0.876                   1.000065        29.05707
0.88                   0.9997853        28.37896
0.884                  0.9995015        27.70795
0.888                  0.9992644        27.04351
0.892                  0.9991156        26.38396
0.896                   0.999082        25.72677
0.9                    0.9991691          25.069
0.904                  0.9993619        24.40783
0.908                  0.9996258        23.74104
0.912                   0.999914        23.06741
0.916                   1.000175        22.38694
0.92                    1.000362        21.70087
0.924                    1.00044        21.01139
0.928                   1.000395        20.32133
0.932                   1.000235        19.63362
0.936                  0.9999853        18.95077
0.94                   0.9996906        18.27442
0.944                  0.9994024        17.60505
0.948                  0.9991713        16.94188
0.952                  0.9990385        16.28297
0.956                  0.9990274         15.6256
0.96                   0.9991404         14.9667
0.964                  0.9993573        14.30343
0.968                  0.9996397        13.63365
0.972                  0.9999373        12.95634
0.976                   1.000197        12.27175
0.98                    1.000372        11.58134
0.984                    1.00043        10.88758
0.988                    1.00036        10.19343
0.992                   1.000173        9.501906
0.996                   0.999902        8.815469
1                      0.9995932        8.135627
1.004                  0.9993012        7.462635
1.008                  0.9990774        6.795451
1.012                  0.9989616         6.13189
1.016                  0.9989743        5.469015
1.02                   0.9991137        4.803646
1.024                  0.9993552        4.132925
1.028                  0.9996559        3.454826
1.032                  0.9999624        2.768507
1.036                    1.00022        2.074469
1.04                    1.000382        1.374453
1.044                   1.000419       0.6711417
1.048                   1.000323     -0.03231761
1.052                    1.00011      -0.7328679
1.056                  0.9998164       -1.428085
1.06                   0.9994938       -2.116616
1.064                  0.9991985       -2.798429
1.068                  0.9989826       -3.474839
1.072                  0.9988846       -4.148284
1.076                  0.9989219       -4.821909
1.08                   0.9990883       -5.499007
1.084                  0.9993547       -6.182438
1.088                  0.9996737       -6.874111
1.092                  0.9999887       -7.574697
1.096                   1.000243       -8.283424
1.1                     1.000392       -8.998245
1.104                   1.000406       -9.716289
1.108                   1.000284       -10.43422
1.112                   1.000044       -11.14894
1.116                  0.9997282       -11.85807
1.12                   0.9993917       -12.56043
1.124                  0.9990934       -13.25616
1.128                  0.9988857       -13.94693
1.132                   0.998806       -14.63539
1.136                  0.9988683        -15.3249
1.14                   0.9990621       -16.01886
1.144                  0.9993536       -16.72013
1.148                  0.9996909       -17.43053
1.152                   1.000014       -18.15048
1.156                   1.000266       -18.87897
1.16                      1.0004       -19.61371
1.164                   1.000392       -20.35155
1.168                   1.000242       -21.08902
1.172                  0.9999747       -21.82294
1.176                  0.9996363       -22.55099
1.18                   0.9992857       -23.27213
1.184                  0.9989841        -23.9868
1.188                  0.9987848       -24.69686
1.192                  0.9987233       -25.40527
1.196                   0.998811       -26.11559
1.2                    0.9990327       -26.83133
1.204                  0.9993495       -27.55536
1.208                  0.9997055       -28.28937
1.212                   1.000038       -29.03359
1.216                   1.000286       -29.78673
1.22                    1.000407       -30.54625
1.224                   1.000376       -31.30874
1.228                   1.000198       -32.07056
1.232                  0.9999032       -32.82847
1.236                  0.9995414       -33.58019
1.24                   0.9991758       -34.32485
1.244                  0.9988703       -35.06311
1.248                  0.9986788       -35.79711
1.252                  0.9986355       -36.53007
1.256                  0.9987486       -37.26575
1.26                   0.9989984       -38.00782
1.264                  0.9993415       -38.75912
1.268                  0.9997174       -39.52124
1.272                   1.000059       -40.29422
1.276                   1.000306       -41.07651
1.28                    1.000413       -41.86527
1.284                   1.000361       -42.65685
1.288                   1.000155       -43.44744
1.292                  0.9998316        -44.2337
1.296                  0.9994454       -45.01341
1.3                    0.9990637       -45.78582
1.304                   0.998753       -46.55183
1.308                  0.9985684       -47.31385
1.312                  0.9985427       -48.07536
1.316                  0.9986812       -48.84037
1.32                   0.9989599       -49.61265
1.324                  0.9993306        -50.3951
1.328                  0.9997279       -51.18918
1.332                   1.000082       -51.99475
1.336                   1.000329       -52.81001
1.34                    1.000424       -53.63181
1.344                    1.00035       -54.45626
1.348                   1.000117       -55.27932
1.352                   0.999764       -56.09759
1.356                  0.9993519       -56.90884
1.36                    0.998952       -57.71244
1.364                  0.9986342       -58.50952
1.368                  0.9984545       -59.30274
1.372                  0.9984451       -60.09592
1.376                  0.9986088       -60.89323
1.38                   0.9989173       -61.69865
1.384                  0.9993172       -62.51509
1.388                  0.9997385       -63.34396
1.392                   1.000107       -64.18494
1.396                   1.000356       -65.03593
1.4                     1.000442       -65.89355
1.404                   1.000348       -66.75355
1.408                   1.000087       -67.61175
1.412                  0.9997032       -68.46454
1.416                  0.9992629        -69.3097
1.42                   0.9988418       -70.14671
1.424                  0.9985136        -70.9769
1.428                  0.9983361       -71.80322
1.432                  0.9983415       -72.62974
1.436                  0.9985298       -73.46095
1.44                    0.998869       -74.30096
1.444                  0.9993006        -75.1528
1.448                  0.9997489       -76.01783
1.452                   1.000135       -76.89552
1.456                   1.000391       -77.78357
1.46                     1.00047       -78.67822
1.464                   1.000356       -79.57499
1.468                   1.000067       -80.46936
1.472                  0.9996504       -81.35759
1.476                  0.9991783        -82.2374
1.48                   0.9987319       -83.10836
1.484                  0.9983889       -83.97194
1.488                  0.9982102        -84.8314
1.492                   0.998228       -85.69111
1.496                  0.9984405       -86.55588
1.5                    0.9988119       -87.43004
1.504                  0.9992782       -88.31672
1.508                   0.999758       -89.21729
1.512                   1.000167       -90.13108
1.516                   1.000434        -91.0555
1.52                    1.000508        -91.9865
1.524                   1.000376        -92.9192
1.528                   1.000058        -93.8488
1.532                  0.9996057       -94.77134
1.536                  0.9990972        -95.6844
1.54                   0.9986202       -96.58761
1.544                  0.9982573       -97.48263
1.548                  0.9980731       -98.37298
1.552                   0.998101       -99.26342
1.556                  0.9983378       -100.1591
1.56                   0.9987437       -101.0646
1.564                  0.9992491       -101.9832
1.568                  0.9997661       -102.9164
1.572                   1.000204       -103.8633
1.576                   1.000486       -104.8211
1.58                     1.00056       -105.7854
1.584                   1.000411       -106.7509
1.588                   1.000062       -107.7124
1.592                  0.9995699       -108.6656
1.596                  0.9990194       -109.6081
1.6                    0.9985049       -110.5394
1.604                  0.9981158       -111.4614
1.608                  0.9979213       -112.3778
1.612                  0.9979569       -113.2939
1.616                  0.9982187       -114.2151
1.62                   0.9986626       -115.1466
1.624                   0.999213       -116.0917
1.628                  0.9997745        -117.052
1.632                   1.000249       -118.0266
1.636                   1.000552       -119.0124
1.64                     1.00063       -120.0045
1.644                   1.000464       -120.9972
1.648                   1.000081       -121.9849
1.652                  0.9995432       -122.9629
1.656                  0.9989425       -123.9284
1.66                   0.9983818       -124.8811
1.664                  0.9979588       -125.8229
1.668                  0.9977487       -126.7581
1.672                    0.99779       -127.6921
1.676                  0.9980784       -128.6312
1.68                   0.9985658       -129.5807
1.684                  0.9991693       -130.5446
1.688                  0.9997844       -131.5243
1.692                   1.000304        -132.519
1.696                   1.000636       -133.5251
1.7                     1.000719       -134.5374
1.704                   1.000535       -135.5497
1.708                   1.000112       -136.5557
1.712                  0.9995199       -137.5502
1.716                  0.9988579       -138.5304
1.72                   0.9982397       -139.4956
1.724                   0.997773        -140.448
1.728                  0.9975411       -141.3924
1.732                  0.9975868       -142.3347
1.736                  0.9979056       -143.2818
1.74                   0.9984445       -144.2397
1.744                  0.9991117       -145.2127
1.748                  0.9997925       -146.2025
1.752                   1.000367       -147.2081
1.756                   1.000734       -148.2257
1.76                    1.000824       -149.2494
1.764                   1.000618       -150.2723
1.768                   1.000146       -151.2875
1.772                  0.9994842       -152.2893
1.776                  0.9987442       -153.2743
1.78                   0.9980525       -154.2418
1.784                  0.9975295       -155.1943
1.788                  0.9972685        -156.137
1.792                  0.9973183       -157.0767
1.796                  0.9976736       -158.0211
1.8                    0.9982764       -158.9768
1.804                  0.9990236       -159.9487
1.808                  0.9997858       -160.9388
1.812                   1.000429       -161.9461
1.816                   1.000837       -162.9662
1.82                    1.000934       -163.9927
1.824                   1.000695       -165.0175
1.828                   1.000155        -166.033
1.832                  0.9993995       -167.0327
1.836                  0.9985546       -168.0126
1.84                   0.9977641       -168.9721
1.844                  0.9971656        -169.914
1.848                  0.9968655       -170.8441
1.852                    0.99692       -171.7703
1.856                  0.9973242       -172.7012
1.86                   0.9980111       -173.6446
1.864                   0.998863       -174.6062
1.868                  0.9997311       -175.5884
1.872                   1.000461       -176.5898
1.876                   1.000918       -177.6056
1.88                    1.001013       -178.6283
1.884                   1.000718       -179.6487
1.888                   1.000071        179.3422
1.892                  0.9991734        178.3519
1.896                  0.9981708         177.385
1.9                    0.9972322        176.4423
1.904                  0.9965196        175.5206
1.908                  0.9961588        174.6129
1.912                  0.9962169          173.71
1.916                  0.9966886        172.8015
1.92                   0.9974944        171.8779
1.924                  0.9984938        170.9324
1.928                  0.9995071        169.9622
1.932                   1.000347        168.9686
1.936                    1.00085        167.9575
1.94                    1.000906        166.9379
1.944                   1.000477         165.921
1.948                  0.9996086        164.9177
1.952                  0.9984223        163.9375
1.956                  0.9970991        162.9862
1.96                   0.9958503        162.0648
1.964                  0.9948812        161.1693
1.968                  0.9943544        160.2909
1.972                  0.9943581        159.4172
1.976                  0.9948862        158.5345
1.98                   0.9958335        157.6297
1.984                  0.9970071        156.6931
1.988                  0.9981533        155.7199
1.992                  0.9989955        154.7111
1.996                  0.9992753        153.6741
2                      0.9987936        152.6215
2.004                  0.9974412        151.5696
2.008                  0.9952205        150.5365
2.012                  0.9922492        149.5397
2.016                  0.9887498        148.5937
2.02                    0.985023         147.708
2.024                  0.9814107        146.8857
2.028                  0.9782504        146.1224
2.032                  0.9758312        145.4072
2.036                  0.9743547        144.7238
2.04                   0.9739107        144.0531
2.044                  0.9744704        143.3754
2.048                  0.9758962        142.6739
2.052                  0.9779705        141.9364
2.056                   0.980432        141.1563
2.06                   0.9830165        140.3333
2.064                  0.9854941        139.4724
2.068                  0.9876969        138.5818
2.072                  0.9895336        137.6721
2.076                  0.9909892        136.7534
2.08                   0.9921136        135.8339
2.084                  0.9929998        134.9193
2.088                  0.9937552        134.0115
2.092                  0.9944758        133.1093
2.096                  0.9952225        132.2092
2.1                    0.9960101        131.3067
2.104                  0.9968033        130.3975
2.108                  0.9975295        129.4792
2.112                  0.9980956        128.5519
2.116                  0.9984119        127.6184
2.12                   0.9984173        126.6841
2.124                  0.9980964        125.7559
2.128                  0.9974891        124.8411
2.132                  0.9966904        123.9455
2.136                  0.9958368        123.0725
2.14                   0.9950831        122.2218
2.144                  0.9945757        121.3897
2.148                  0.9944232        120.5685
2.152                  0.9946741        119.7489
2.156                  0.9953031        118.9206
2.16                   0.9962128        118.0747
2.164                  0.9972474        117.2053
2.168                  0.9982193         116.311
2.172                  0.9989418        115.3945
2.176                  0.9992628        114.4633
2.18                   0.9990949        113.5276
2.184                  0.9984327        112.5994
2.188                  0.9973588        111.6896
2.192                  0.9960321        110.8069
2.196                   0.994664        109.9553
2.2                    0.9934817        109.1335
2.204                  0.9926885        108.3348
2.208                  0.9924244         107.548
2.212                  0.9927382         106.759
2.216                  0.9935742        105.9536
2.22                   0.9947788        105.1201
2.224                  0.9961247        104.2514
2.228                  0.9973496        103.3462
2.232                  0.9982028        102.4097
2.236                  0.9984894        101.4527
2.24                   0.9981067        100.4898
2.244                  0.9970661        99.53671
2.248                  0.9954959        98.60819
2.252                  0.9936224         97.7148
2.256                  0.9917354        96.86105
2.26                    0.990138        96.04408
2.264                  0.9890923        95.25373
2.268                  0.9887692        94.47404
2.272                  0.9892127        93.68585
2.276                  0.9903264        92.87026
2.28                   0.9918857        92.01211
2.284                  0.9935753        91.10288
2.288                  0.9950416        90.14225
2.292                  0.9959561        89.13827
2.296                  0.9960733        88.10616
2.3                    0.9952764         87.0657
2.304                  0.9936032        86.03811
2.308                  0.9912461        85.04237
2.312                  0.9885252        84.09166
2.316                  0.9858383        83.19065
2.32                   0.9835929        82.33384
2.324                  0.9821318        81.50586
2.328                  0.9816655        80.68345
2.332                  0.9822256        79.83954
2.336                  0.9836506        78.94795
2.34                   0.9856066        77.98828
2.344                  0.9876418        76.94974
2.348                  0.9892628        75.83303
2.352                  0.9900205        74.65034