! TOUCHSTONE file generated by CST MICROWAVE STUDIO
! Date and time: Tue Jun 14 11:51:03 2022
! Project name: AppElm_antenne_patch_FR4.cst
! Parameters = {L=47.25; W=58.5; e=0.035; h=1.6; lambda=0.190476; ls=120; w0=2.54; w1=0.847; ws=120; y0=18; y1=23.8}
! Header version: 2018
! Port assignment regex: !\s*Touchstone port\s*([0-9]+)\s*=\s*(CST MWS port|CST DS port)\s*([0-9]+|Zmin|Zmax)\s*\(\"(.*)\"\)(\s*mode\s*([0-9]+))?.*
! Touchstone port assignment:
! Touchstone port 1 = CST MWS port 1 ("")
# GHz S MA R 50
0                      0.9872056              -0
0.004                  0.9880346       -10.42954
0.008                  0.9903975       -20.75197
0.012                  0.9939428        -30.8663
0.016                  0.9981503       -40.68258
0.02                    1.002415       -50.12498
0.024                   1.006142       -59.13289
0.028                    1.00883       -67.66055
0.032                   1.010144       -75.67588
0.036                   1.009956       -83.15946
0.04                    1.008356       -90.10366
0.044                   1.005637       -96.51258
0.048                   1.002247       -102.4023
0.052                    0.99872       -107.8011
0.056                   0.995595        -112.749
0.06                   0.9933315       -117.2961
0.064                  0.9922379       -121.4992
0.068                   0.992426       -125.4176
0.072                  0.9937974       -129.1072
0.076                  0.9960691       -132.6164
0.08                   0.9988266       -135.9817
0.084                     1.0016       -139.2266
0.088                    1.00394       -142.3616
0.092                    1.00549       -145.3861
0.096                   1.006038       -148.2922
0.1                     1.005543       -151.0681
0.104                   1.004135        -153.702
0.108                   1.002087        -156.186
0.112                  0.9997694       -158.5191
0.116                  0.9975858       -160.7084
0.12                   0.9959035       -162.7695
0.124                   0.994994       -164.7252
0.128                  0.9949871       -166.6023
0.132                  0.9958528       -168.4279
0.136                  0.9974119       -170.2258
0.14                   0.9993716        -172.013
0.144                   1.001381       -173.7979
0.148                   1.003092         -175.58
0.152                    1.00422        -177.351
0.156                   1.004588       -179.0971
0.16                    1.004154        179.1978
0.164                   1.003014        177.5496
0.168                   1.001382        175.9702
0.172                  0.9995535        174.4656
0.176                  0.9978512        173.0345
0.18                   0.9965709         171.668
0.184                  0.9959292        170.3513
0.188                  0.9960258        169.0654
0.192                  0.9968288        167.7911
0.196                  0.9981816        166.5117
0.2                    0.9998348         165.216
0.204                   1.001491        163.8995
0.208                    1.00286        162.5654
0.212                   1.003707        161.2229
0.216                   1.003891         159.886
0.22                     1.00339        158.5701
0.224                     1.0023        157.2901
0.228                    1.00082         156.057
0.232                  0.9992143        154.8765
0.236                   0.997766        153.7474
0.24                   0.9967298         152.662
0.244                  0.9962841        151.6072
0.248                  0.9965016        150.5669
0.252                  0.9973358        149.5246
0.256                  0.9986314        148.4667
0.26                    1.000154        147.3845
0.264                   1.001632        146.2756
0.268                   1.002804        145.1443
0.272                   1.003468        144.0004
0.276                   1.003512        142.8574
0.28                    1.002932        141.7303
0.284                   1.001834        140.6327
0.288                   1.000415        139.5745
0.292                  0.9989256        138.5602
0.296                  0.9976301        137.5882
0.3                    0.9967574        136.6506
0.304                    0.99646        135.7347
0.308                  0.9967878        134.8253
0.312                  0.9976792        133.9075
0.316                  0.9989726        132.9691
0.32                    1.000437        132.0032
0.324                   1.001811        131.0087
0.328                   1.002855        129.9907
0.332                   1.003385        128.9597
0.336                   1.003312        127.9292
0.34                    1.002649        126.9134
0.344                   1.001516        125.9254
0.348                   1.000111         124.974
0.352                  0.9986847        124.0628
0.356                  0.9974891        123.1892
0.36                   0.9967359        122.3449
0.364                  0.9965589         121.517
0.368                  0.9969886        120.6907
0.372                  0.9979474        119.8518
0.376                  0.9992641        118.9893
0.38                    1.000704        118.0973
0.384                   1.002014        117.1759
0.388                   1.002961        116.2311
0.392                   1.003381        115.2739
0.396                   1.003201         114.318
0.4                     1.002451        113.3775
0.404                   1.001264        112.4648
0.408                  0.9998481        111.5878
0.412                   0.998454        110.7494
0.416                  0.9973285        109.9459
0.42                   0.9966721        109.1683
0.424                  0.9966017        108.4034
0.428                  0.9971306        107.6363
0.432                  0.9981648        106.8534
0.436                  0.9995204        106.0443
0.44                    1.000957         105.204
0.444                   1.002221        104.3339
0.448                    1.00309        103.4409
0.452                   1.003409        102.5365
0.456                   1.003122        101.6347
0.46                    1.002278        100.7498
0.464                   1.001024        99.89341
0.468                  0.9995795        99.07317
0.472                  0.9981991        98.29069
0.476                  0.9971278        97.54148
0.48                    0.996557        96.81556
0.484                  0.9965891        96.09921
0.488                    0.99722        95.37743
0.492                   0.998338        94.63671
0.496                  0.9997454        93.86738
0.5                     1.001193        93.06545
0.504                   1.002423        92.23314
0.508                    1.00322        91.37841
0.512                   1.003442        90.51357
0.516                   1.003046         89.6531
0.52                      1.0021        88.81127
0.524                   1.000768        87.99957
0.528                  0.9992826        87.22474
0.532                  0.9979056        86.48753
0.536                  0.9968818        85.78238
0.54                   0.9963947        85.09835
0.544                  0.9965331        84.42098
0.548                  0.9972742        83.73496
0.552                  0.9984879        83.02689
0.556                  0.9999594         82.2877
0.56                    1.001428        81.51431
0.564                   1.002635           80.71
0.568                   1.003365        79.88381
0.572                   1.003487        79.04896
0.576                   1.002977        78.22048
0.58                     1.00192        77.41283
0.584                   1.000501        76.63719
0.588                  0.9989654        75.89964
0.592                  0.9975861        75.19991
0.596                  0.9966084        74.53131
0.6                     0.996209        73.88173
0.604                  0.9964616        73.23592
0.608                  0.9973245         72.5781
0.612                  0.9986464        71.89496
0.616                   1.000194        71.17801
0.62                    1.001694        70.42508
0.624                   1.002879        69.64066
0.628                   1.003541        68.83494
0.632                   1.003558        68.02216
0.636                   1.002923        67.21809
0.64                    1.001745        66.43731
0.644                   1.000225        65.69086
0.648                  0.9986304        64.98405
0.652                  0.9972434        64.31553
0.656                  0.9963118        63.67732
0.66                   0.9960049        63.05607
0.664                  0.9963812        62.43552
0.668                  0.9973778        61.79937
0.672                  0.9988198        61.13438
0.676                   1.000453        60.43261
0.68                    1.001989        59.69294
0.684                   1.003154        58.92113
0.688                   1.003741         58.1287
0.692                   1.003641        57.33104
0.696                   1.002867        56.54469
0.7                      1.00155        55.78458
0.704                  0.9999149        55.06147
0.708                  0.9982501        54.37988
0.712                  0.9968495        53.73728
0.716                   0.995965        53.12421
0.72                   0.9957577        52.52596
0.724                  0.9962697         51.9251
0.728                  0.9974138        51.30475
0.732                    0.99899        50.65164
0.736                   1.000719        49.95851
0.74                    1.002296        49.22534
0.744                   1.003439        48.45932
0.748                   1.003943        47.67347
0.752                   1.003713        46.88447
0.756                   1.002782        46.10975
0.76                    1.001307        45.36465
0.764                  0.9995417        44.65962
0.768                  0.9977952        43.99839
0.772                  0.9963775        43.37702
0.776                  0.9955437        42.78447
0.78                   0.9954478        42.20438
0.784                  0.9961122        41.61806
0.788                  0.9974237        41.00789
0.792                  0.9991522        40.36062
0.796                   1.000992        39.66966
0.8                     1.002618        38.93628
0.804                   1.003739        38.16924
0.808                   1.004152        37.38327
0.812                   1.003776        36.59649
0.816                   1.002669        35.82743
0.82                    1.001016        35.09181
0.824                  0.9991024         34.3999
0.828                  0.9972633        33.75441
0.832                  0.9958257        33.14991
0.836                  0.9950499        32.57348
0.84                   0.9950809        32.00693
0.844                  0.9959203        31.43008
0.848                  0.9974242        30.82447
0.852                  0.9993295        30.17682
0.856                     1.0013        29.48132
0.86                    1.002985        28.74065
0.864                   1.004084        27.96541
0.868                   1.004396        27.17222
0.872                   1.003857        26.38092
0.876                   1.002549        25.61125
0.88                    1.000693         24.8795
0.884                   0.998608        24.19565
0.888                  0.9966607        23.56139
0.892                  0.9951984        22.96951
0.896                  0.9944878        22.40497
0.9                     0.994664        21.84743
0.904                  0.9957047        21.27498
0.908                  0.9974318        20.66817
0.912                  0.9995433        20.01361
0.916                   1.001666         19.3064
0.92                    1.003424         18.5508
0.924                   1.004501        17.75952
0.928                   1.004698        16.95137
0.932                   1.003969         16.1482
0.936                   1.002427        15.37122
0.94                    1.000332        14.63742
0.944                  0.9980431        13.95653
0.948                  0.9959638        13.32904
0.952                  0.9944661        12.74577
0.956                  0.9938252        12.18916
0.96                   0.9941664        11.63634
0.964                    0.99544        11.06331
0.968                  0.9974276        10.44939
0.972                  0.9997818        9.781079
0.976                   1.002087        9.054384
0.98                    1.003933        8.275463
0.984                   1.004988         7.45941
0.988                   1.005052        6.627666
0.992                   1.004099        5.804462
0.996                   1.002278        5.012817
1                      0.9998921        4.270647
1.004                  0.9973528        3.587506
1.008                  0.9951058        2.962554
1.012                  0.9935552        2.384257
1.016                  0.9929875        1.832096
1.02                   0.9935182         1.28012
1.024                  0.9950659       0.7017458
1.028                  0.9973654      0.07473124
1.032                   1.000014      -0.6147129
1.036                   1.002545       -1.369518
1.04                    1.004506        -2.18139
1.044                   1.005542       -3.032358
1.048                   1.005452       -3.897835
1.052                   1.004231       -4.750645
1.056                   1.002069       -5.565457
1.06                   0.9993256       -6.323086
1.064                  0.9964703       -7.014026
1.068                  0.9940055       -7.640599
1.072                  0.9923757        -8.21712
1.076                  0.9918857       -8.767767
1.08                   0.9926407       -9.322323
1.084                  0.9945229       -9.910704
1.088                  0.9972103       -10.55725
1.092                   1.000233       -11.27625
1.096                   1.003057       -12.06954
1.1                     1.005178        -12.9262
1.104                   1.006207       -13.82489
1.108                    1.00594       -14.73702
1.112                   1.004393       -15.63172
1.116                   1.001806        -16.4805
1.12                   0.9986047       -17.26239
1.124                  0.9953369       -17.96768
1.128                  0.9925773       -18.60031
1.132                  0.9908263       -19.17798
1.136                  0.9904158        -19.7295
1.14                   0.9914434       -20.28972
1.144                  0.9937484       -20.89296
1.148                  0.9969375       -21.56654
1.152                   1.000454       -22.32568
1.156                   1.003678         -23.171
1.16                     1.00603        -24.0886
1.164                   1.007076       -25.05263
1.168                   1.006598       -26.02953
1.172                   1.004638       -26.98333
1.176                   1.001492       -27.88135
1.18                   0.9976757       -28.69974
1.184                  0.9938367       -29.42806
1.188                  0.9906503       -30.07205
1.192                  0.9886979       -30.65365
1.196                  0.9883561       -31.20781
1.2                    0.9897196        -31.7763
1.204                  0.9925763       -32.39979
1.208                  0.9964408       -33.11001
1.212                    1.00064       -33.92393
1.216                    1.00443       -34.84095
1.22                     1.00713        -35.8434
1.224                   1.008231       -36.89968
1.228                   1.007489       -37.96936
1.232                   1.004967       -39.00938
1.236                   1.001037       -39.98069
1.24                   0.9963289       -40.85489
1.244                  0.9916341       -41.61972
1.248                  0.9877755       -42.28269
1.252                  0.9854601       -42.87129
1.256                  0.9851418       -43.42913
1.26                   0.9869256       -44.00821
1.264                  0.9905366       -44.65895
1.268                  0.9953631       -45.42027
1.272                   1.000563       -46.31251
1.276                   1.005213       -47.33413
1.28                    1.008466       -48.46257
1.284                   1.009694       -49.65833
1.288                   1.008592       -50.87105
1.292                    1.00524       -52.04696
1.296                   1.000103       -53.13685
1.3                    0.9939755       -54.10418
1.304                  0.9878646       -54.93246
1.308                  0.9828307       -55.63042
1.312                  0.9797954       -56.23312
1.316                  0.9793613       -56.79746
1.32                   0.9816779       -57.39227
1.324                  0.9863943       -58.08473
1.328                  0.9927121       -58.92703
1.332                  0.9995241       -59.94664
1.336                   1.005607       -61.14225
1.34                    1.009827       -62.48502
1.344                   1.011329       -63.92389
1.348                   1.009671       -65.39311
1.352                   1.004915        -66.8212
1.356                  0.9976396       -68.14074
1.36                   0.9888855       -69.29897
1.364                  0.9800224       -70.26856
1.368                  0.9725403       -71.05654
1.372                  0.9677884       -71.70847
1.376                  0.9667023       -72.30458
1.38                   0.9695866       -72.94633
1.384                  0.9760166       -73.73611
1.388                  0.9848901       -74.75613
1.392                  0.9946158       -76.05321
1.396                   1.003386       -77.63227
1.4                     1.009472       -79.45854
1.404                   1.011484       -81.46469
1.408                   1.008591       -83.56043
1.412                   1.000653       -85.64296
1.416                  0.9883002       -87.60833
1.42                   0.9729146       -89.36514
1.424                  0.9565141       -90.85188
1.428                   0.941506       -92.05685
1.432                  0.9303039       -93.03617
1.436                  0.9248397       -93.92052
1.44                   0.9260765       -94.90139
1.444                  0.9336786       -96.19582
1.448                  0.9459615       -98.00176
1.452                  0.9601362       -100.4635
1.456                  0.9727356       -103.6589
1.46                   0.9800811       -107.6068
1.464                  0.9786786       -112.2857
1.468                  0.9655072       -117.6535
1.472                  0.9382063       -123.6658
1.476                  0.8951842       -130.2895
1.48                   0.8356734       -137.5177
1.484                  0.7597568       -145.3895
1.488                  0.6683864       -154.0284
1.492                  0.5634438        -163.729
1.496                  0.4479841         -175.19
1.5                    0.3272187         169.743
1.504                  0.2131413         145.275
1.508                  0.1472032        96.18519
1.512                  0.1951471        42.11064
1.516                  0.3050737        14.48993
1.52                    0.425834       -1.672129
1.524                  0.5426986        -13.6151
1.528                  0.6497826        -23.5872
1.532                  0.7437562       -32.41522
1.536                  0.8225558       -40.44352
1.54                   0.8850694       -47.81833
1.544                  0.9310572       -54.59094
1.548                  0.9611287       -60.76134
1.552                  0.9767205       -66.30037
1.556                  0.9800475       -71.16454
1.56                   0.9740071       -75.31011
1.564                  0.9620119       -78.70961
1.568                  0.9477244       -81.37184
1.572                  0.9346843       -83.36113
1.576                  0.9258533       -84.80816
1.58                   0.9231702       -85.90193
1.584                  0.9272589       -86.85924
1.588                  0.9374124       -87.88067
1.592                  0.9518697       -89.11203
1.596                    0.96828       -90.62564
1.6                    0.9841987        -92.4234
1.604                   0.997495       -94.45317
1.608                   1.006626       -96.62887
1.612                   1.010777       -98.84828
1.616                   1.009902       -101.0074
1.62                    1.004666       -103.0119
1.624                   0.996327       -104.7875
1.628                  0.9865431       -106.2899
1.632                  0.9771256       -107.5125
1.636                  0.9697536       -108.4902
1.64                   0.9656917       -109.2964
1.644                  0.9655753       -110.0293
1.648                  0.9693143       -110.7932
1.652                  0.9761488       -111.6766
1.656                  0.9848324       -112.7366
1.66                   0.9938929       -113.9925
1.664                   1.001898        -115.427
1.668                   1.007681       -116.9949
1.672                   1.010494       -118.6328
1.676                   1.010093       -120.2695
1.68                     1.00674       -121.8362
1.684                   1.001147       -123.2757
1.688                  0.9943564       -124.5496
1.692                  0.9875764       -125.6454
1.696                  0.9819824       -126.5788
1.7                    0.9785186       -127.3926
1.704                  0.9777356       -128.1489
1.708                  0.9796995       -128.9175
1.712                  0.9839971        -129.762
1.716                  0.9898328        -130.728
1.72                   0.9961894       -131.8364
1.724                   1.002016        -133.082
1.728                   1.006402       -134.4373
1.732                   1.008712       -135.8582
1.736                   1.008671       -137.2927
1.74                    1.006384       -138.6876
1.744                   1.002318       -139.9972
1.748                  0.9972111        -141.189
1.752                  0.9919585       -142.2495
1.756                  0.9874629       -143.1866
1.76                   0.9844814       -144.0288
1.764                  0.9834952       -144.8205
1.768                  0.9846288       -145.6138
1.772                  0.9876369       -146.4583
1.776                  0.9919606       -147.3921
1.78                   0.9968398       -148.4354
1.784                   1.001451       -149.5885
1.788                   1.005052       -150.8334
1.792                    1.00709       -152.1378
1.796                   1.007287       -153.4608
1.8                     1.005673         -154.76
1.804                   1.002568       -155.9969
1.808                   0.998529       -157.1434
1.812                  0.9942585        -158.186
1.816                  0.9904863        -159.128
1.82                    0.987847       -159.9898
1.824                  0.9867703       -160.8051
1.828                  0.9874086       -161.6149
1.832                  0.9896154       -162.4599
1.836                  0.9929794       -163.3729
1.84                   0.9969055       -164.3731
1.844                   1.000725       -165.4639
1.848                   1.003808       -166.6333
1.852                    1.00567       -167.8564
1.856                   1.006037       -169.1006
1.86                     1.00489       -170.3303
1.864                   1.002453       -171.5129
1.868                  0.9991613       -172.6233
1.872                  0.9955837        -173.648
1.876                  0.9923288       -174.5876
1.88                    0.989943        -175.457
1.884                  0.9888164       -176.2825
1.888                  0.9891161       -177.0976
1.892                  0.9907616       -177.9365
1.896                  0.9934437        -178.828
1.9                    0.9966856       -179.7904
1.904                  0.9999302        179.1711
1.908                   1.002637        178.0643
1.912                    1.00437        176.9084
1.916                   1.004864        175.7303
1.92                    1.004066        174.5599
1.924                   1.002133        173.4257
1.928                  0.9994082        172.3505
1.932                  0.9963589        171.3472
1.936                   0.993502        170.4172
1.94                   0.9913149        169.5501
1.944                  0.9901548        168.7246
1.948                  0.9901981        167.9132
1.952                  0.9914115        167.0866
1.956                  0.9935637        166.2194
1.96                   0.9962693         165.294
1.964                  0.9990603         164.304
1.968                   1.001467         163.254
1.972                   1.003096         162.159
1.976                   1.003693        161.0408
1.98                    1.003177        159.9251
1.984                   1.001652        158.8369
1.988                  0.9993873        157.7965
1.992                  0.9967688        156.8168
1.996                  0.9942365         155.901
2                      0.9922101        155.0414
2.004                  0.9910178        154.2217
2.008                  0.9908417        153.4189
2.012                  0.9916872        152.6079
2.016                  0.9933871        151.7661
2.02                    0.995633        150.8769
2.024                  0.9980332        149.9327
2.028                    1.00018        148.9357
2.032                    1.00172        147.8969
2.036                   1.002406        146.8341
2.04                    1.002136         145.769
2.044                   1.000969        144.7231
2.048                  0.9991067        143.7153
2.052                  0.9968623         142.758
2.056                  0.9946068        141.8557
2.06                   0.9927078        141.0038
2.064                  0.9914672        140.1898
2.068                   0.991071        139.3952
2.072                  0.9915605        138.5988
2.076                  0.9928269        137.7804
2.08                   0.9946344        136.9245
2.084                  0.9966632        136.0224
2.088                  0.9985657        135.0737
2.092                   1.000023         134.086
2.096                   1.000799        133.0729
2.1                     1.000769        132.0522
2.104                  0.9999464        131.0424
2.108                  0.9984664        130.0604
2.112                  0.9965703        129.1186
2.116                  0.9945607        128.2227
2.12                   0.9927523        127.3714
2.124                  0.9914221        126.5562
2.128                  0.9907618        125.7629
2.132                  0.9908501        124.9742
2.136                  0.9916408        124.1726
2.14                   0.9929742        123.3433
2.144                  0.9946069        122.4768
2.148                  0.9962536        121.5697
2.152                  0.9976343        120.6254
2.156                  0.9985183        119.6534
2.16                    0.998758        118.6668
2.164                  0.9983099        117.6811
2.168                  0.9972364         116.711
2.172                  0.9956953        115.7689
2.176                   0.993912        114.8625
2.18                   0.9921444        113.9939
2.184                  0.9906416        113.1593
2.188                  0.9896062        112.3499
2.192                  0.9891639        111.5526
2.196                  0.9893451        110.7531
2.2                    0.9900828        109.9374
2.204                  0.9912264        109.0941
2.208                   0.992566        108.2164
2.212                  0.9938661        107.3026
2.216                  0.9949007        106.3559
2.22                   0.9954854        105.3844
2.224                  0.9955024         104.399
2.228                  0.9949153        103.4124
2.232                  0.9937716        102.4368
2.236                  0.9921959        101.4827
2.24                   0.9903717        100.5572
2.244                  0.9885157        99.66302
2.248                  0.9868481        98.79801
2.252                  0.9855627        97.95544
2.256                  0.9847991         97.1247
2.26                   0.9846234        96.29271
2.264                  0.9850169        95.44567
2.268                  0.9858775        94.57089
2.272                  0.9870317        93.65854
2.276                  0.9882559        92.70297
2.28                   0.9893049        91.70347
2.284                  0.9899434         90.6644
2.288                  0.9899772        89.59477
2.292                  0.9892813         88.5071
2.296                  0.9878192        87.41597
2.3                    0.9856542        86.33611
2.304                   0.982948        85.28047
2.308                  0.9799464        84.25796
2.312                  0.9769515        83.27171
2.316                  0.9742823        82.31769
2.32                   0.9722284        81.38435
2.324                  0.9710007        80.45316
2.328                   0.970689        79.50071
2.332                  0.9712331        78.50153
2.336                  0.9724154        77.43186
2.34                   0.9738769        76.27317
2.344                  0.9751573        75.01522
2.348                  0.9757534        73.65779
2.352                  0.9751887        72.21116