! TOUCHSTONE file generated by CST MICROWAVE STUDIO
! Date and time: Tue Jun 14 11:51:00 2022
! Project name: AppElm_antenne_patch_FR4.cst
! Parameters = {L=40.5; W=58.5; e=0.035; h=1.6; lambda=0.190476; ls=120; w0=2.54; w1=0.847; ws=120; y0=18; y1=23.8}
! Header version: 2018
! Port assignment regex: !\s*Touchstone port\s*([0-9]+)\s*=\s*(CST MWS port|CST DS port)\s*([0-9]+|Zmin|Zmax)\s*\(\"(.*)\"\)(\s*mode\s*([0-9]+))?.*
! Touchstone port assignment:
! Touchstone port 1 = CST MWS port 1 ("")
# GHz S MA R 50
0                      0.9847903              -0
0.004                  0.9851528       -9.165868
0.008                  0.9861849       -18.25712
0.012                  0.9877304       -27.20226
0.016                  0.9895571       -35.93566
0.02                    0.991394       -44.39961
0.024                  0.9929738       -52.54566
0.028                   0.994073       -60.33525
0.032                  0.9945457       -67.73983
0.036                  0.9943427       -74.74079
0.04                   0.9935176       -81.32928
0.044                  0.9922159       -87.50591
0.048                  0.9906522       -93.28034
0.052                  0.9890749        -98.6707
0.056                  0.9877274       -103.7024
0.06                   0.9868093       -108.4068
0.064                  0.9864459       -112.8184
0.068                  0.9866696       -116.9728
0.072                  0.9874174       -120.9041
0.076                  0.9885452       -124.6418
0.08                   0.9898528       -128.2101
0.084                    0.99112       -131.6264
0.088                  0.9921428       -134.9016
0.092                  0.9927658       -138.0413
0.096                  0.9929051       -141.0471
0.1                    0.9925597       -143.9188
0.104                   0.991809       -146.6561
0.108                  0.9907965        -149.261
0.112                  0.9897047        -151.738
0.116                  0.9887236        -154.096
0.12                   0.9880182        -156.347
0.124                  0.9877009        -158.506
0.128                  0.9878143       -160.5891
0.132                  0.9883251       -162.6119
0.136                  0.9891325       -164.5877
0.14                   0.9900877        -166.526
0.144                  0.9910212        -168.432
0.148                  0.9917719       -170.3065
0.152                  0.9922157       -172.1466
0.156                  0.9922842       -173.9468
0.16                    0.991976       -175.7005
0.164                  0.9913547       -177.4021
0.168                  0.9905372       -179.0478
0.172                  0.9896712         179.363
0.176                  0.9889103        177.8274
0.18                   0.9883866         176.339
0.184                  0.9881877        174.8889
0.188                  0.9883418        173.4669
0.192                  0.9888146        172.0631
0.196                  0.9895156        170.6695
0.2                    0.9903163        169.2807
0.204                  0.9910726        167.8952
0.208                  0.9916514        166.5147
0.212                  0.9919527        165.1441
0.216                  0.9919279        163.7899
0.22                   0.9915858        162.4592
0.224                  0.9909908        161.1582
0.228                  0.9902518         159.891
0.232                  0.9895013        158.6586
0.236                  0.9888724        157.4589
0.24                   0.9884754        156.2868
0.244                   0.988378        155.1349
0.248                  0.9885936        153.9949
0.252                  0.9890796         152.859
0.256                  0.9897463        151.7211
0.26                    0.990472        150.5777
0.264                  0.9911268        149.4288
0.268                  0.9915946        148.2772
0.272                  0.9917938        147.1283
0.276                  0.9916907        145.9887
0.28                   0.9913063        144.8656
0.284                  0.9907106        143.7645
0.288                  0.9900107        142.6891
0.292                   0.989332          141.64
0.296                  0.9887953         140.615
0.3                    0.9884952        139.6089
0.304                  0.9884839        138.6148
0.308                  0.9887612        137.6253
0.312                  0.9892758        136.6336
0.316                  0.9899339        135.6346
0.32                   0.9906172        134.6262
0.324                  0.9912036         133.609
0.328                  0.9915884        132.5867
0.332                   0.991705         131.565
0.336                  0.9915329        130.5507
0.34                    0.991104        129.5503
0.344                  0.9904957        128.5692
0.348                  0.9898166        127.6102
0.352                  0.9891884        126.6736
0.356                  0.9887231        125.7564
0.36                   0.9885035        124.8535
0.364                  0.9885683        123.9579
0.368                  0.9889049        123.0627
0.372                  0.9894526        122.1616
0.376                  0.9901126        121.2504
0.38                    0.990767        120.3278
0.384                  0.9912989        119.3954
0.388                  0.9916137        118.4572
0.392                  0.9916558        117.5194
0.396                  0.9914184        116.5886
0.4                    0.9909436        115.6712
0.404                  0.9903168        114.7721
0.408                  0.9896495        113.8935
0.412                  0.9890611        113.0348
0.416                  0.9886571        112.1928
0.42                   0.9885099        111.3619
0.424                  0.9886456        110.5351
0.428                    0.98904        109.7055
0.432                  0.9896223        108.8676
0.436                  0.9902884        108.0178
0.44                   0.9909191        107.1555
0.444                   0.991402         106.283
0.448                   0.991651         105.405
0.452                  0.9916215        104.5277
0.456                  0.9913186         103.658
0.46                   0.9907961        102.8021
0.464                  0.9901468        101.9641
0.468                  0.9894864        101.1457
0.472                  0.9889329        100.3458
0.476                  0.9885856        99.56044
0.48                    0.988507        98.78356
0.484                  0.9887116        98.00818
0.488                  0.9891627        97.22762
0.492                  0.9897798        96.43663
0.496                  0.9904523         95.6324
0.5                    0.9910604        94.81503
0.504                  0.9914947        93.98743
0.508                  0.9916774        93.15486
0.512                  0.9915753        92.32398
0.516                  0.9912057        91.50159
0.52                   0.9906333        90.69357
0.524                  0.9899596        89.90367
0.528                  0.9893046        89.13295
0.532                  0.9887848        88.37949
0.536                  0.9884941         87.6387
0.54                   0.9884846        86.90415
0.544                  0.9887585        86.16872
0.548                  0.9892671        85.42585
0.552                  0.9899194        84.67075
0.556                  0.9905986        83.90123
0.56                    0.991183        83.11814
0.564                  0.9915673         82.3251
0.568                  0.9916822        81.52792
0.572                  0.9915057        80.73356
0.576                  0.9910678        79.94885
0.58                   0.9904452        79.17939
0.584                  0.9897478        78.42839
0.588                  0.9890999        77.69625
0.592                  0.9886173        76.98026
0.596                  0.9883866        76.27523
0.6                    0.9884501        75.57425
0.604                  0.9887968        74.87006
0.608                  0.9893653        74.15622
0.612                   0.990054        73.42846
0.616                  0.9907394        72.68524
0.62                   0.9912986        71.92819
0.624                  0.9916307        71.16162
0.628                   0.991675        70.39194
0.632                  0.9914216        69.62641
0.636                  0.9909145        68.87188
0.64                   0.9902419        68.13359
0.644                  0.9895232        67.41422
0.648                  0.9888863         66.7134
0.652                  0.9884455        66.02766
0.656                  0.9882807         65.3511
0.66                   0.9884222        64.67637
0.664                  0.9888461        63.99604
0.668                  0.9894769        63.30392
0.672                  0.9902021         62.5962
0.676                   0.990892         61.8721
0.68                   0.9914223          61.134
0.684                  0.9916976        60.38702
0.688                  0.9916663        59.63816
0.692                  0.9913326        58.89493
0.696                  0.9907535        58.16418
0.7                    0.9900307        57.45078
0.704                  0.9892924         56.7568
0.708                  0.9886705        56.08104
0.712                  0.9882768        55.41922
0.716                  0.9881833        54.76471
0.72                   0.9884083         54.1097
0.724                  0.9889125        53.44666
0.728                  0.9896068        52.76964
0.732                  0.9903671        52.07536
0.736                  0.9910572        51.36386
0.74                    0.991553        50.63837
0.744                  0.9917639        49.90484
0.748                  0.9916505        49.17077
0.752                    0.99123        48.44405
0.756                  0.9905752        47.73142
0.76                   0.9898008        47.03734
0.764                  0.9890445        46.36317
0.768                  0.9884413        45.70686
0.772                  0.9881003        45.06322
0.776                  0.9880843        44.42489
0.78                   0.9883977         43.7836
0.784                  0.9889857        43.13174
0.788                  0.9897441        42.46364
0.792                  0.9905374        41.77667
0.796                  0.9912228        41.07172
0.8                    0.9916766        40.35296
0.804                  0.9918153        39.62712
0.808                  0.9916115        38.90236
0.812                  0.9910978         38.1868
0.816                  0.9903632        37.48708
0.82                   0.9895365        36.80719
0.824                  0.9887644         36.1477
0.828                  0.9881852        35.50559
0.832                   0.987904        34.87476
0.836                  0.9879729        34.24707
0.84                   0.9883815         33.6138
0.844                  0.9890582        32.96725
0.848                  0.9898824        32.30215
0.852                  0.9907068        31.61659
0.856                  0.9913831        30.91235
0.86                   0.9917881         30.1946
0.864                  0.9918466        29.47096
0.868                  0.9915444        28.75022
0.872                  0.9909312        28.04072
0.876                  0.9901133        27.34896
0.88                   0.9892341        26.67835
0.884                    0.98845        26.02862
0.888                  0.9879016        25.39571
0.892                   0.987689        24.77249
0.896                  0.9878525        24.15002
0.9                    0.9883651        23.51913
0.904                  0.9891368        22.87211
0.908                  0.9900302        22.20412
0.912                  0.9908854        21.51405
0.916                  0.9915482        20.80468
0.92                   0.9918975        20.08227
0.924                  0.9918673        19.35537
0.928                  0.9914582        18.63338
0.932                  0.9907389        17.92489
0.936                  0.9898339        17.23618
0.94                   0.9889022        16.57005
0.944                  0.9881099        15.92523
0.948                  0.9875997        15.29655
0.952                  0.9874656        14.67579
0.956                  0.9877347        14.05316
0.96                   0.9883613        13.41902
0.964                  0.9892358        12.76569
0.968                  0.9902024        12.08884
0.972                  0.9910882        11.38823
0.976                  0.9917331        10.66781
0.98                   0.9920188        9.934939
0.984                  0.9918898        9.199184
0.988                  0.9913638        8.470612
0.992                  0.9905291         7.75805
0.996                  0.9895308         7.06751
1                      0.9885446        6.401064
1.004                  0.9877466        5.756379
1.008                  0.9872817        5.127043
1.012                  0.9872363        4.503652
1.016                  0.9876224        3.875478
1.02                   0.9883744        3.232429
1.024                  0.9893602        2.566884
1.028                  0.9904047        1.875084
1.032                  0.9913208        1.157801
1.036                  0.9919426       0.4201973
1.04                   0.9921549      -0.3290813
1.044                  0.9919145       -1.079398
1.048                  0.9912574       -1.819962
1.052                  0.9902948       -2.541712
1.056                  0.9891935       -3.238939
1.06                   0.9881479       -3.910386
1.064                  0.9873451       -4.559582
1.068                  0.9869313       -5.194312
1.072                   0.986985       -5.825299
1.076                   0.987501       -6.464274
1.08                   0.9883914       -7.121841
1.084                  0.9894996       -7.805557
1.088                  0.9906285       -8.518465
1.092                  0.9915757       -9.258722
1.096                  0.9921691        -10.0198
1.1                     0.992297       -10.79166
1.104                  0.9919296       -11.56241
1.108                  0.9911241       -12.32048
1.112                  0.9900163       -13.05652
1.116                  0.9887985        -13.7652
1.12                   0.9876851       -14.44614
1.124                  0.9868761       -15.10424
1.128                  0.9865196       -15.74884
1.132                  0.9866846       -16.39212
1.136                  0.9873473       -17.04696
1.14                   0.9883938       -17.72456
1.144                  0.9896403       -18.43236
1.148                   0.990865       -19.17273
1.152                  0.9918477       -19.94252
1.156                  0.9924085       -20.73367
1.16                   0.9924401        -21.5345
1.164                  0.9919275        -22.3318
1.168                  0.9909514       -23.11303
1.172                  0.9896764       -23.86854
1.176                   0.988323       -24.59331
1.18                   0.9871298       -25.28801
1.184                  0.9863115       -25.95906
1.188                  0.9860192       -26.61756
1.192                  0.9863118       -27.27746
1.196                  0.9871439       -27.95298
1.2                    0.9883726       -28.65601
1.204                  0.9897818       -29.39393
1.208                  0.9911209       -30.16831
1.212                  0.9921486       -30.97457
1.216                  0.9926754       -31.80284
1.22                    0.992598        -32.6396
1.224                  0.9919175          -33.47
1.228                  0.9907414       -34.28034
1.232                  0.9892679       -35.06051
1.236                  0.9877515       -35.80585
1.24                   0.9864596       -36.51817
1.244                  0.9856255       -37.20566
1.248                   0.985405       -37.88155
1.252                  0.9858463       -38.56185
1.256                  0.9868794       -39.26245
1.26                    0.988327       -39.99613
1.264                  0.9899352       -40.77031
1.268                  0.9914179       -41.58564
1.272                  0.9925071       -42.43591
1.276                  0.9930007       -43.30912
1.28                   0.9927973       -44.18952
1.284                  0.9919167        -45.0602
1.288                  0.9904985         -45.906
1.292                  0.9887799       -46.71611
1.296                  0.9870573       -47.48621
1.3                    0.9856353       -48.21937
1.304                  0.9847716       -48.92589
1.308                  0.9846296       -49.62161
1.312                   0.985247       -50.32514
1.316                  0.9865249       -51.05452
1.32                   0.9882447       -51.82378
1.324                   0.990105       -52.64049
1.328                   0.991775       -53.50429
1.332                  0.9929516       -54.40705
1.336                  0.9934135       -55.33417
1.34                   0.9930601       -56.26706
1.344                  0.9919318       -57.18621
1.348                  0.9902054        -58.0744
1.352                  0.9881682       -58.91983
1.356                  0.9861703       -59.71829
1.36                   0.9845647       -60.47441
1.364                  0.9836442       -61.20102
1.368                  0.9835861       -61.91732
1.372                  0.9844168       -62.64536
1.376                  0.9860037       -63.40607
1.38                   0.9880759       -64.21535
1.384                  0.9902704       -65.08114
1.388                   0.992196       -66.00202
1.392                  0.9935013       -66.96745
1.396                  0.9939358       -67.95953
1.4                    0.9933955       -68.95596
1.404                  0.9919433        -69.9336
1.408                  0.9898033       -70.87239
1.412                  0.9873276        -71.7588
1.416                  0.9849392       -72.58858
1.42                   0.9830595       -73.36804
1.424                  0.9820332       -74.11345
1.428                  0.9820618       -74.84842
1.432                  0.9831626       -75.59985
1.436                  0.9851602       -76.39292
1.44                   0.9877142       -77.24633
1.444                   0.990377       -78.16893
1.448                  0.9926723       -79.15808
1.452                  0.9941761       -80.20019
1.456                  0.9945921       -81.27292
1.46                   0.9938038       -82.34876
1.464                  0.9918999       -83.39932
1.468                  0.9891663       -84.40019
1.472                  0.9860446       -85.33496
1.476                  0.9830632        -86.1988
1.48                   0.9807472       -87.00006
1.484                   0.979523       -87.75961
1.488                  0.9796365       -88.50757
1.492                  0.9811002       -89.27816
1.496                  0.9836826       -90.10318
1.5                    0.9869445         -91.006
1.504                  0.9903127       -91.99733
1.508                  0.9931796       -93.07326
1.512                  0.9950066       -94.21604
1.516                  0.9954178       -95.39688
1.52                   0.9942668       -96.58047
1.524                    0.99167       -97.73032
1.528                  0.9879988       -98.81464
1.532                  0.9838293        -99.8119
1.536                  0.9798553       -100.7154
1.54                   0.9767724        -101.536
1.544                  0.9751508       -102.3013
1.548                  0.9753232       -103.0519
1.552                  0.9773096       -103.8344
1.556                  0.9807999       -104.6921
1.56                   0.9852001       -105.6571
1.564                  0.9897304       -106.7441
1.568                   0.993559       -107.9482
1.572                  0.9959423       -109.2456
1.576                  0.9963507       -110.5972
1.58                   0.9945635       -111.9551
1.584                  0.9907187       -113.2684
1.588                  0.9853136       -114.4917
1.592                  0.9791464       -115.5928
1.596                  0.9732053       -116.5597
1.6                    0.9685081       -117.4055
1.604                  0.9659186       -118.1693
1.608                  0.9659685       -118.9115
1.612                  0.9687306        -119.703
1.616                  0.9737754       -120.6121
1.62                   0.9802272       -121.6905
1.624                  0.9869043       -122.9641
1.628                  0.9925143       -124.4291
1.632                  0.9958645       -126.0529
1.636                  0.9960525       -127.7795
1.64                   0.9926205       -129.5366
1.644                  0.9856532       -131.2448
1.648                  0.9758143       -132.8278
1.652                  0.9643056       -134.2245
1.656                  0.9527365       -135.4031
1.66                   0.9428961       -136.3738
1.664                  0.9364368       -137.1984
1.668                  0.9345181       -137.9876
1.672                  0.9374895        -138.886
1.676                  0.9447122        -140.045
1.68                   0.9545771       -141.5933
1.684                  0.9647034       -143.6158
1.688                   0.972253       -146.1454
1.692                   0.974266       -149.1661
1.696                   0.967961       -152.6221
1.7                    0.9509676       -156.4264
1.704                  0.9214969       -160.4652
1.708                  0.8784607       -164.5962
1.712                  0.8215663       -168.6369
1.716                  0.7514107       -172.3384
1.72                   0.6696307       -175.3343
1.724                  0.5792095       -177.0381
1.728                  0.4851911       -176.4514
1.732                   0.396336        -171.873
1.736                  0.3281953       -161.0269
1.74                   0.3032843       -143.9654
1.744                  0.3338812       -127.3414
1.748                   0.405574       -117.2284
1.752                  0.4961934       -113.1831
1.756                  0.5909857       -112.9299
1.76                   0.6816103       -114.8498
1.764                  0.7631913       -117.9974
1.768                  0.8328024       -121.8144
1.772                  0.8888222       -125.9479
1.776                  0.9306606       -130.1552
1.78                   0.9586291       -134.2554
1.784                  0.9738596       -138.1043
1.788                  0.9782191       -141.5851
1.792                  0.9741969       -144.6061
1.796                  0.9647318       -147.1078
1.8                    0.9529692        -149.073
1.804                  0.9419343       -150.5379
1.808                  0.9341564       -151.5973
1.812                  0.9313133       -152.3953
1.816                  0.9340015       -153.1006
1.82                   0.9417196       -153.8728
1.824                  0.9530786       -154.8309
1.828                  0.9661656       -156.0371
1.832                  0.9789487       -157.4957
1.836                  0.9896272       -159.1651
1.84                   0.9968792       -160.9725
1.844                          1       -162.8291
1.848                  0.9989451       -164.6439
1.852                  0.9942898        -166.334
1.856                  0.9871205       -167.8351
1.86                   0.9788612       -169.1101
1.864                  0.9710517       -170.1554
1.868                  0.9650978       -171.0039
1.872                  0.9620315         -171.72
1.876                  0.9623344       -172.3886
1.88                   0.9658678       -173.0972
1.884                  0.9719286       -173.9192
1.888                  0.9794121       -174.9003
1.892                  0.9870362       -176.0534
1.896                  0.9935713       -177.3602
1.9                    0.9980361       -178.7781
1.904                  0.9998326        179.7513
1.908                  0.9988154        178.2924
1.912                  0.9952927        176.9064
1.916                  0.9899663        175.6426
1.92                    0.983815        174.5317
1.924                  0.9779357        173.5797
1.928                  0.9733584        172.7664
1.932                  0.9708678        172.0481
1.936                  0.9708637         171.365
1.94                   0.9732949        170.6535
1.944                  0.9776828        169.8584
1.948                  0.9832241        168.9428
1.952                  0.9889501        167.8936
1.956                  0.9939001        166.7221
1.96                   0.9972817        165.4595
1.964                  0.9985891        164.1508
1.968                  0.9976721        162.8473
1.972                  0.9947481        161.5988
1.976                  0.9903618        160.4464
1.98                   0.9852943        159.4158
1.984                  0.9804353        158.5131
1.988                  0.9766303        157.7227
1.992                  0.9745338        157.0095
1.996                  0.9744901        156.3252
2                      0.9764745        155.6176
2.004                  0.9801042        154.8403
2.008                  0.9847172        153.9618
2.012                   0.989501        152.9702
2.016                  0.9936371        151.8736
2.02                   0.9964402        150.6981
2.024                   0.997465        149.4819
2.028                  0.9965707        148.2696
2.032                  0.9939381        147.1046
2.036                  0.9900367        146.0231
2.04                   0.9855477        145.0477
2.044                  0.9812519        144.1841
2.048                  0.9778946        143.4184
2.052                  0.9760553        142.7199
2.056                  0.9760414        142.0458
2.06                   0.9778331        141.3498
2.064                  0.9810905        140.5906
2.068                   0.985221        139.7398
2.072                  0.9894926        138.7863
2.076                   0.993164        137.7375
2.08                   0.9956108        136.6168
2.084                  0.9964255        135.4593
2.088                  0.9954801        134.3058
2.092                  0.9929424        133.1964
2.096                  0.9892497        132.1645
2.1                    0.9850349        131.2312
2.104                  0.9810244        130.4009
2.108                  0.9779123        129.6607
2.112                  0.9762366        128.9813
2.116                  0.9762799        128.3227
2.12                   0.9780175        127.6411
2.124                  0.9811226        126.8977
2.128                    0.98503        126.0659
2.132                  0.9890414        125.1355
2.136                  0.9924502        124.1138
2.14                   0.9946612        123.0234
2.144                  0.9952885        121.8983
2.148                  0.9942158        120.7781
2.152                  0.9916136        119.7015
2.156                  0.9879127        118.7007
2.16                   0.9837356        117.7956
2.164                  0.9797939        116.9904
2.168                  0.9767651        116.2715
2.172                   0.975172        115.6097
2.176                  0.9752832        114.9648
2.18                    0.977063        114.2936
2.184                  0.9801764        113.5578
2.188                  0.9840524        112.7312
2.192                  0.9879894        111.8042
2.196                  0.9912793        110.7847
2.2                    0.9933288        109.6959
2.204                  0.9937565        108.5726
2.208                  0.9924548        107.4549
2.212                  0.9896078        106.3821
2.216                  0.9856649        105.3869
2.22                   0.9812705        104.4892
2.224                  0.9771587        103.6924
2.228                  0.9740268        102.9819
2.232                  0.9724089        102.3265
2.236                  0.9725732        101.6839
2.24                    0.974469        101.0086
2.244                  0.9777318        100.2603
2.248                  0.9817512        99.41207
2.252                  0.9857807        98.45421
2.256                  0.9890703        97.39567
2.26                    0.990993         96.2618
2.264                  0.9911489        95.08982
2.268                  0.9894318        93.92287
2.272                  0.9860492        92.80335
2.276                  0.9814952        91.76628
2.28                   0.9764764        90.83306
2.284                  0.9717987        90.00693
2.288                  0.9682289        89.27098
2.292                  0.9663531        88.58983
2.296                  0.9664622         87.9154
2.3                    0.9684886        87.19586
2.304                  0.9720122        86.38548
2.308                   0.976334        85.45333
2.312                  0.9806004        84.38835
2.316                  0.9839515        83.20066
2.32                   0.9856657        81.91909
2.324                  0.9852789        80.58608
2.328                  0.9826619        79.25128
2.332                  0.9780489        77.96397
2.336                  0.9720125        76.76541
2.34                   0.9653843        75.68132
2.344                  0.9591258        74.71597
2.348                  0.9541659         73.8487
2.352                  0.9512268        73.03528