! TOUCHSTONE file generated by CST MICROWAVE STUDIO
! Date and time: Tue Jun 14 11:51:04 2022
! Project name: AppElm_antenne_patch_FR4.cst
! Parameters = {L=49.5; W=58.5; e=0.035; h=1.6; lambda=0.190476; ls=120; w0=2.54; w1=0.847; ws=120; y0=18; y1=23.8}
! Header version: 2018
! Port assignment regex: !\s*Touchstone port\s*([0-9]+)\s*=\s*(CST MWS port|CST DS port)\s*([0-9]+|Zmin|Zmax)\s*\(\"(.*)\"\)(\s*mode\s*([0-9]+))?.*
! Touchstone port assignment:
! Touchstone port 1 = CST MWS port 1 ("")
# GHz S MA R 50
0                      0.9847579              -0
0.004                  0.9857605        -10.8474
0.008                  0.9886151       -21.57467
0.012                  0.9928879       -32.06928
0.016                  0.9979402        -42.2322
0.02                    1.003033       -51.98139
0.024                   1.007447       -61.25257
0.028                   1.010581       -69.99831
0.032                   1.012044        -78.1862
0.036                   1.011698       -85.79724
0.04                     1.00967       -92.82496
0.044                   1.006332       -99.27544
0.048                   1.002241       -105.1679
0.052                  0.9980508       -110.5355
0.056                  0.9944127       -115.4249
0.06                   0.9918712       -119.8944
0.064                  0.9907769       -124.0103
0.068                  0.9912328       -127.8411
0.072                  0.9930832       -131.4504
0.076                  0.9959518       -134.8919
0.08                   0.9993132       -138.2042
0.084                   1.002588       -141.4098
0.088                   1.005243        -144.516
0.092                   1.006869       -147.5172
0.096                   1.007246       -150.3999
0.1                     1.006368       -153.1468
0.104                   1.004434       -155.7422
0.108                   1.001814        -158.176
0.112                  0.9989797       -160.4471
0.116                  0.9964279        -162.565
0.12                   0.9945925         -164.55
0.124                  0.9937719       -166.4304
0.128                  0.9940783        -168.239
0.132                  0.9954224        -170.008
0.136                  0.9975363        -171.764
0.14                    1.000026       -173.5244
0.144                   1.002444       -175.2955
0.148                   1.004371       -177.0727
0.152                   1.005486       -178.8425
0.156                   1.005615        179.4144
0.16                     1.00476        177.7194
0.164                    1.00309        176.0917
0.168                   1.000914        174.5449
0.172                   0.998625        173.0845
0.176                  0.9966289         171.706
0.18                   0.9952755         170.396
0.184                  0.9947948        169.1337
0.188                  0.9952579        167.8948
0.192                  0.9965654        166.6556
0.196                  0.9984695        165.3973
0.2                     1.000621        164.1088
0.204                   1.002633        162.7884
0.208                   1.004153        161.4435
0.212                   1.004918        160.0888
0.216                   1.004804        158.7437
0.22                    1.003841        157.4283
0.224                   1.002205        156.1605
0.228                   1.000192        154.9524
0.232                  0.9981611        153.8083
0.236                  0.9964741        152.7235
0.24                   0.9954289        151.6852
0.244                  0.9952072        150.6745
0.248                  0.9958419        149.6698
0.252                  0.9972114        148.6508
0.256                  0.9990644        147.6022
0.26                    1.001066         146.516
0.264                    1.00286         145.393
0.268                    1.00413        144.2423
0.272                   1.004657        143.0792
0.276                   1.004351        141.9227
0.28                    1.003271         140.792
0.284                   1.001612        139.7035
0.288                  0.9996684        138.6675
0.292                  0.9977866        137.6868
0.296                  0.9963021        136.7554
0.3                    0.9954793          135.86
0.304                  0.9954634        134.9821
0.308                  0.9962544        134.1011
0.312                  0.9977071        133.1986
0.316                  0.9995593        132.2615
0.32                    1.001479        131.2838
0.324                   1.003126        130.2685
0.328                   1.004209        129.2258
0.332                   1.004539        128.1718
0.336                    1.00406        127.1254
0.34                    1.002858        126.1051
0.344                   1.001144        125.1261
0.348                  0.9992231         124.197
0.352                  0.9974365        123.3191
0.356                  0.9961028         122.485
0.36                   0.9954613        121.6805
0.364                  0.9956267        120.8866
0.368                  0.9965692        120.0836
0.372                  0.9981188         119.254
0.376                  0.9999986        118.3864
0.38                    1.001873        117.4767
0.384                   1.003411        116.5293
0.388                    1.00434         115.556
0.392                   1.004498        114.5735
0.396                   1.003856        113.6008
0.4                     1.002527        112.6562
0.404                   1.000743        111.7536
0.408                  0.9988209        110.9004
0.412                  0.9971016        110.0961
0.416                  0.9958923         109.332
0.42                   0.9954105        108.5926
0.424                  0.9957437        107.8586
0.428                  0.9968328        107.1103
0.432                  0.9984829        106.3313
0.436                     1.0004        105.5114
0.44                    1.002242        104.6484
0.444                   1.003683        103.7481
0.448                   1.004467        102.8237
0.452                   1.004455        101.8929
0.456                   1.003648        100.9749
0.46                    1.002184        100.0875
0.464                    1.00032        99.24383
0.468                  0.9983858        98.44988
0.472                   0.996724        97.70341
0.476                  0.9956336        96.99416
0.48                   0.9953115        96.30544
0.484                   0.995818        95.61729
0.488                   0.997064        94.91002
0.492                  0.9988279        94.16798
0.496                   1.000796         93.3823
0.5                     1.002617        92.55241
0.504                    1.00397        91.68596
0.508                   1.004613         90.7974
0.512                   1.004431        89.90541
0.516                   1.003453        89.02969
0.52                    1.001846        88.18771
0.524                  0.9998923        87.39162
0.528                  0.9979359        86.64605
0.532                  0.9963255        85.94707
0.536                  0.9953507        85.28265
0.54                   0.9951891        84.63482
0.544                  0.9958724        83.98276
0.548                  0.9972805        83.30684
0.552                  0.9991634        82.59209
0.556                   1.001186        81.83102
0.56                    1.002988        81.02477
0.564                    1.00425        80.18274
0.568                   1.004747        79.32091
0.572                   1.004387        78.45899
0.576                   1.003229        77.61716
0.58                    1.001472        76.81256
0.584                  0.9994249        76.05642
0.588                  0.9974485        75.35182
0.592                  0.9958967        74.69296
0.596                  0.9950502        74.06603
0.6                    0.9950651        73.45151
0.604                  0.9959431        72.82775
0.608                  0.9975305        72.17506
0.612                  0.9995456        71.47928
0.616                    1.00163        70.73435
0.62                    1.003414        69.94328
0.624                    1.00458        69.11734
0.628                   1.004918         68.2742
0.632                   1.004363         67.4347
0.636                   1.003008        66.61953
0.64                    1.001085        65.84557
0.644                  0.9989316        65.12298
0.648                  0.9969276        64.45322
0.652                  0.9954329        63.82851
0.656                  0.9947188          63.233
0.66                   0.9949187        62.64552
0.664                  0.9960015        62.04352
0.668                   0.997777        61.40726
0.672                  0.9999302        60.72345
0.676                   1.002078        59.98759
0.68                    1.003838        59.20466
0.684                   1.004897        58.38796
0.688                   1.005062        57.55697
0.692                   1.004298        56.73377
0.696                   1.002731        55.93956
0.7                     1.000632        55.19087
0.704                  0.9983689        54.49676
0.708                  0.9963427        53.85684
0.712                  0.9949183        53.26113
0.716                  0.9943566        52.69155
0.72                   0.9947649        52.12518
0.724                  0.9960759        51.53847
0.728                  0.9980592        50.91168
0.732                   1.000363         50.2325
0.736                   1.002577         49.4982
0.74                    1.004306        48.71589
0.744                   1.005241        47.90121
0.748                   1.005209        47.07554
0.752                   1.004207        46.26238
0.756                   1.002401        45.48347
0.76                    1.000102        44.75501
0.764                  0.9977122        44.08476
0.768                  0.9956566        43.47033
0.772                  0.9943061        42.89925
0.776                  0.9939095        42.35099
0.78                   0.9945453        41.80067
0.784                  0.9961065        41.22365
0.788                   0.998318         40.6002
0.792                   1.000787        39.91908
0.796                   1.003075        39.17949
0.8                     1.004772        38.39097
0.804                   1.005573        37.57161
0.808                   1.005328        36.74495
0.812                   1.004069        35.93601
0.816                   1.002007        35.16711
0.82                   0.9994954        34.45408
0.824                  0.9969767        33.80323
0.828                  0.9949002        33.20987
0.832                  0.9936431        32.65879
0.836                  0.9934403        32.12673
0.84                   0.9943379        31.58662
0.844                  0.9961829        31.01264
0.848                  0.9986508        30.38512
0.852                   1.001303        29.69411
0.856                   1.003668        28.94095
0.86                    1.005322        28.13794
0.864                   1.005964        27.30596
0.868                    1.00547        26.47095
0.872                    1.00391        25.65968
0.876                   1.001547        24.89519
0.88                   0.9987853        24.19286
0.884                  0.9961111        23.55738
0.888                  0.9940027        22.98148
0.892                  0.9928456         22.4468
0.896                  0.9928589        21.92691
0.9                    0.9940522        21.39223
0.904                  0.9962214        20.81555
0.908                  0.9989847        20.17725
0.912                   1.001852        19.46874
0.916                   1.004314        18.69385
0.92                    1.005928        17.86789
0.924                   1.006399        17.01491
0.928                   1.005629        16.16366
0.932                   1.003735        15.34287
0.936                   1.001034        14.57648
0.94                   0.9979904        13.87944
0.944                  0.9951409        13.25463
0.948                  0.9929976        12.69185
0.952                  0.9919558        12.16907
0.956                  0.9922172        11.65625
0.96                   0.9937498        11.12086
0.964                  0.9962898        10.53411
0.968                    0.99939        9.876378
0.972                     1.0025        9.140678
0.976                   1.005064        8.333656
0.98                     1.00662        7.474172
0.984                   1.006877        6.589976
0.988                   1.005767        5.713127
0.992                    1.00346        4.874802
0.996                    1.00034        4.100113
1                      0.9969414        3.403595
1.004                  0.9938627        2.786121
1.008                  0.9916594        2.234007
1.012                  0.9907413        1.720861
1.016                  0.9912925        1.212151
1.02                   0.9932323        0.671685
1.024                  0.9962272       0.0685676
1.028                  0.9997505      -0.6169955
1.032                   1.003177       -1.390256
1.036                   1.005896        -2.24132
1.04                    1.007414       -3.147155
1.044                   1.007442       -4.075567
1.048                   1.005945       -4.990415
1.052                   1.003153       -5.857384
1.056                  0.9995289       -6.649683
1.06                   0.9956931       -7.352959
1.064                  0.9923221        -7.96857
1.068                  0.9900277       -8.514285
1.072                  0.9892419       -9.021823
1.076                  0.9901309         -9.5313
1.08                   0.9925582       -10.08359
1.084                  0.9961056        -10.7124
1.088                   1.000148       -11.43796
1.092                   1.003968       -12.26351
1.096                    1.00688        -13.1754
1.1                     1.008348       -14.14537
1.104                   1.008081       -15.13569
1.108                   1.006081       -16.10495
1.112                   1.002652       -17.01457
1.116                  0.9983554        -17.8352
1.12                   0.9939232       -18.55237
1.124                  0.9901381       -19.16993
1.128                  0.9876922       -19.71076
1.132                   0.987055       -20.21364
1.136                  0.9883776       -20.72627
1.14                   0.9914555       -21.29611
1.144                  0.9957618       -21.96112
1.148                   1.000542        -22.7426
1.152                   1.004948       -23.64179
1.156                   1.008188       -24.64018
1.16                    1.009663       -25.70309
1.164                   1.009062       -26.78534
1.168                   1.006426       -27.83818
1.172                   1.002146       -28.81674
1.176                  0.9969126        -29.6875
1.18                    0.991611       -30.43471
1.184                  0.9871757       -31.06482
1.188                  0.9844219       -31.60722
1.192                  0.9838873       -32.11018
1.196                  0.9857174       -32.63226
1.2                    0.9896269       -33.23079
1.204                  0.9949445       -33.95048
1.208                   1.000734        -34.8151
1.212                   1.005962       -35.82377
1.216                   1.009675       -36.95201
1.22                    1.011164       -38.15634
1.224                   1.010076       -39.38112
1.228                   1.006488       -40.56673
1.232                   1.000903       -41.65837
1.236                  0.9941956       -42.61497
1.24                     0.98748        -43.4175
1.244                  0.9819328       -44.07493
1.248                  0.9785808       -44.62565
1.252                   0.978095       -45.13271
1.256                  0.9806421       -45.67253
1.26                   0.9858323       -46.31949
1.264                  0.9927796       -47.13099
1.268                   1.000261       -48.13663
1.272                   1.006933       -49.33412
1.276                    1.01156       -50.69115
1.28                    1.013213       -52.15142
1.284                   1.011427       -53.64322
1.288                   1.006283       -55.08895
1.292                  0.9984223       -56.41581
1.296                  0.9889895       -57.56708
1.3                    0.9794782       -58.51387
1.304                  0.9715049       -59.26487
1.308                  0.9665205       -59.87093
1.312                  0.9655122       -60.42044
1.316                  0.9687719       -61.02395
1.32                   0.9757966       -61.79157
1.324                  0.9853593       -62.80985
1.328                  0.9957267        -64.1258
1.332                   1.004961       -65.74111
1.336                   1.011236       -67.61539
1.34                    1.013121       -69.67469
1.344                   1.009788       -71.82199
1.348                   1.001163       -73.94834
1.352                  0.9879877       -75.94477
1.356                  0.9717922       -77.71713
1.36                   0.9547631       -79.20447
1.364                  0.9394673       -80.40065
1.368                  0.9284306       -81.37309
1.372                  0.9236116       -82.26834
1.376                  0.9258922       -83.29465
1.38                   0.9347587       -84.68171
1.384                  0.9482968       -86.63309
1.388                   0.963492         -89.292
1.392                  0.9767041       -92.73182
1.396                   0.984158       -96.96749
1.4                    0.9823443       -101.9769
1.404                  0.9683038        -107.723
1.408                  0.9398061       -114.1728
1.412                  0.8954556       -121.3141
1.416                  0.8347527       -129.1747
1.42                   0.7581413       -137.8506
1.424                  0.6670855       -147.5619
1.428                  0.5642746       -158.7743
1.432                  0.4542339       -172.4936
1.436                  0.3452711        168.9926
1.44                   0.2556458        140.7788
1.444                  0.2234138        99.51278
1.448                  0.2725579        60.70755
1.452                   0.368726        35.30677
1.456                  0.4783444         18.2233
1.46                   0.5864285        5.232436
1.464                  0.6859367       -5.554293
1.468                  0.7729561       -14.97633
1.472                  0.8452103       -23.42671
1.476                  0.9015768       -31.09098
1.48                   0.9419179       -38.04795
1.484                  0.9670063       -44.31703
1.488                   0.978467       -49.88396
1.492                   0.978697       -54.71882
1.496                   0.970737       -58.79296
1.5                    0.9580648       -62.09793
1.504                   0.944291       -64.66603
1.508                   0.932752       -66.58774
1.512                  0.9260552       -68.01667
1.516                  0.9256785       -69.15409
1.52                   0.9317743       -70.21312
1.524                  0.9432602       -71.37614
1.528                  0.9581693       -72.76305
1.532                   0.974132       -74.42105
1.536                    0.98884       -76.33303
1.54                    1.000403       -78.43565
1.544                   1.007569       -80.63867
1.548                   1.009824        -82.8413
1.552                   1.007392       -84.94538
1.556                   1.001155       -86.86635
1.56                   0.9925025       -88.54317
1.564                  0.9831229       -89.94726
1.568                  0.9747404       -91.08861
1.572                  0.9688365       -92.01681
1.576                  0.9663997       -92.81359
1.58                   0.9677625       -93.57762
1.584                  0.9725695       -94.40433
1.588                  0.9798872       -95.36748
1.592                  0.9884149       -96.50741
1.596                  0.9967434       -97.82818
1.6                     1.003597       -99.30193
1.604                   1.008022       -100.8777
1.608                   1.009505       -102.4913
1.612                   1.008021       -104.0758
1.616                   1.004007       -105.5701
1.62                   0.9982788       -106.9275
1.624                  0.9918993       -108.1225
1.628                   0.986001        -109.155
1.632                     0.9816       -110.0515
1.636                  0.9794219       -110.8605
1.64                   0.9797809       -111.6437
1.644                  0.9825361        -112.464
1.648                  0.9871384       -113.3734
1.652                  0.9927504       -114.4041
1.656                  0.9984098       -115.5645
1.66                      1.0032       -116.8404
1.664                   1.006394       -118.1989
1.668                   1.007561        -119.596
1.672                   1.006615       -120.9831
1.676                   1.003811       -122.3145
1.68                   0.9996973       -123.5541
1.684                  0.9950209       -124.6807
1.688                   0.990601       -125.6917
1.692                  0.9871931       -126.6036
1.696                  0.9853603       -127.4493
1.7                    0.9853774       -128.2724
1.704                  0.9871911       -129.1186
1.708                  0.9904407       -130.0274
1.712                   0.994535       -131.0248
1.716                  0.9987664       -132.1203
1.72                    1.002436       -133.3058
1.724                   1.004969       -134.5589
1.728                      1.006       -135.8471
1.732                   1.005423       -137.1335
1.736                   1.003395       -138.3824
1.74                    1.000306       -139.5647
1.744                  0.9967109       -140.6626
1.748                   0.993235       -141.6721
1.752                  0.9904679       -142.6039
1.756                  0.9888648       -143.4817
1.76                   0.9886696        -144.338
1.764                  0.9898771       -145.2075
1.768                  0.9922423       -146.1215
1.772                  0.9953315       -147.1019
1.776                  0.9986055       -148.1579
1.78                    1.001515       -149.2855
1.784                   1.003594       -150.4686
1.788                   1.004529        -151.683
1.792                   1.004206       -152.8996
1.796                   1.002721       -154.0901
1.8                     1.000358       -155.2307
1.804                  0.9975379       -156.3059
1.808                  0.9947494       -157.3112
1.812                  0.9924642       -158.2536
1.816                  0.9910574       -159.1505
1.82                    0.990746       -160.0266
1.824                  0.9915535       -160.9091
1.828                  0.9933124       -161.8232
1.832                  0.9956992       -162.7875
1.836                  0.9982959       -163.8108
1.84                    1.000664       -164.8916
1.844                    1.00242       -166.0186
1.848                   1.003293       -167.1732
1.852                   1.003168       -168.3326
1.856                   1.002095       -169.4739
1.86                    1.000281       -170.5773
1.864                  0.9980481       -171.6295
1.868                  0.9957798       -172.6254
1.872                  0.9938569       -173.5694
1.876                   0.992593        -174.474
1.88                   0.9921813       -175.3582
1.884                  0.9926663       -176.2433
1.888                  0.9939392       -177.1499
1.892                  0.9957617       -178.0935
1.896                  0.9978118       -179.0829
1.9                    0.9997409        179.8819
1.904                   1.001233        178.8085
1.908                   1.002055        177.7108
1.912                   1.002092        176.6063
1.916                   1.001361        175.5136
1.92                    1.000004         174.449
1.924                   0.998263         173.424
1.928                  0.9964349        172.4438
1.932                  0.9948241        171.5065
1.936                  0.9936901        170.6031
1.94                   0.9932055        169.7196
1.944                   0.993429        168.8395
1.948                   0.994299        167.9463
1.952                  0.9956485        167.0269
1.956                  0.9972366        166.0731
1.96                    0.998792        165.0834
1.964                   1.000059        164.0624
1.968                   1.000837        163.0198
1.972                   1.001015         161.969
1.976                    1.00058        160.9242
1.98                   0.9996185        159.8987
1.984                  0.9983011        158.9026
1.988                  0.9968486        157.9412
1.992                   0.995497        157.0145
1.996                  0.9944581         156.117
2                      0.9938851         155.239
2.004                  0.9938502        154.3683
2.008                  0.9943349        153.4922
2.012                  0.9952376        152.5996
2.016                  0.9963926        151.6832
2.02                   0.9976007        150.7399
2.024                  0.9986627        149.7713
2.028                  0.9994104        148.7834
2.032                  0.9997323        147.7853
2.036                  0.9995882        146.7873
2.04                   0.9990115        145.7999
2.044                  0.9981018        144.8315
2.048                  0.9970056        143.8878
2.052                  0.9958926        142.9707
2.056                  0.9949285         142.078
2.06                   0.9942482        141.2045
2.064                  0.9939383        140.3421
2.068                  0.9940239        139.4817
2.072                  0.9944691        138.6146
2.076                  0.9951846        137.7338
2.08                   0.9960437        136.8347
2.084                  0.9969042        135.9161
2.088                  0.9976287        134.9799
2.092                  0.9981052        134.0306
2.096                  0.9982618        133.0747
2.1                    0.9980739        132.1196
2.104                  0.9975666        131.1724
2.108                   0.996808        130.2392
2.112                     0.9959        129.3243
2.116                  0.9949609        128.4291
2.12                   0.9941108        127.5529
2.124                  0.9934549        126.6923
2.128                  0.9930699        125.8421
2.132                   0.992994        124.9957
2.136                  0.9932227        124.1463
2.14                   0.9937099        123.2875
2.144                  0.9943736        122.4145
2.148                  0.9951078        121.5244
2.152                   0.995794        120.6165
2.156                  0.9963179        119.6928
2.16                   0.9965834        118.7574
2.164                   0.996526        117.8163
2.168                  0.9961222        116.8763
2.172                  0.9953945        115.9447
2.176                  0.9944109        115.0277
2.18                   0.9932781          114.13
2.184                  0.9921301        113.2537
2.188                  0.9911102        112.3981
2.192                  0.9903511        111.5591
2.196                  0.9899549        110.7298
2.2                    0.9899739        109.9013
2.204                  0.9903997        109.0637
2.208                   0.991159        108.2078
2.212                  0.9921193        107.3264
2.216                  0.9931056        106.4155
2.22                   0.9939242        105.4753
2.224                  0.9943913        104.5104
2.228                  0.9943633        103.5293
2.232                  0.9937624        102.5434
2.236                  0.9925944        101.5653
2.24                   0.9909555        100.6072
2.244                  0.9890244        99.67845
2.248                  0.9870407          98.784
2.252                  0.9852711        97.92285
2.256                  0.9839654         97.0876
2.26                   0.9833131          96.265
2.264                  0.9834043        95.43764
2.268                  0.9842046        94.58656
2.272                  0.9855507        93.69445
2.276                  0.9871683        92.74871
2.28                   0.9887097        91.74374
2.284                  0.9898068        90.68238
2.288                   0.990132        89.57575
2.292                   0.989454        88.44189
2.296                  0.9876844        87.30327
2.3                    0.9849034         86.1835
2.304                   0.981361        85.10337
2.308                  0.9774512        84.07702
2.312                  0.9736572        83.10833
2.316                  0.9704754        82.18893
2.32                   0.9683264        81.29782
2.324                  0.9674706         80.4036
2.328                  0.9679422        79.46899
2.332                  0.9695225        78.45697
2.336                  0.9717547        77.33735
2.34                   0.9740058        76.09201
2.344                  0.9755583        74.71814
2.348                  0.9757235        73.22898
2.352                  0.9739515        71.65197