! TOUCHSTONE file generated by CST MICROWAVE STUDIO
! Date and time: Tue Jun 14 11:50:59 2022
! Project name: AppElm_antenne_patch_FR4.cst
! Parameters = {L=38.25; W=58.5; e=0.035; h=1.6; lambda=0.190476; ls=120; w0=2.54; w1=0.847; ws=120; y0=18; y1=23.8}
! Header version: 2018
! Port assignment regex: !\s*Touchstone port\s*([0-9]+)\s*=\s*(CST MWS port|CST DS port)\s*([0-9]+|Zmin|Zmax)\s*\(\"(.*)\"\)(\s*mode\s*([0-9]+))?.*
! Touchstone port assignment:
! Touchstone port 1 = CST MWS port 1 ("")
# GHz S MA R 50
0                      0.9885001              -0
0.004                  0.9888558       -8.688939
0.008                  0.9898772       -17.31596
0.012                  0.9914325       -25.82146
0.016                   0.993323       -34.15016
0.02                   0.9953096       -42.25276
0.024                   0.997145       -50.08687
0.028                  0.9986065       -57.61764
0.032                  0.9995231       -64.81785
0.036                  0.9997966       -71.66793
0.04                   0.9994134       -78.15568
0.044                  0.9984437       -84.27624
0.048                  0.9970317       -90.03186
0.052                  0.9953753       -95.43171
0.056                  0.9937003       -100.4914
0.06                   0.9922278       -105.2326
0.064                  0.9911469       -109.6812
0.068                  0.9905872       -113.8667
0.072                   0.990603       -117.8197
0.076                  0.9911675       -121.5697
0.08                   0.9921785       -125.1441
0.084                  0.9934755       -128.5655
0.088                  0.9948642       -131.8516
0.092                  0.9961449       -135.0145
0.096                  0.9971411        -138.061
0.1                    0.9977233       -140.9938
0.104                  0.9978259       -143.8129
0.108                  0.9974541       -146.5165
0.112                  0.9966814       -149.1035
0.116                   0.995637       -151.5741
0.12                   0.9944862       -153.9314
0.124                  0.9934052       -156.1816
0.128                  0.9925548       -158.3343
0.132                  0.9920572       -160.4017
0.136                  0.9919771       -162.3978
0.14                   0.9923149       -164.3368
0.144                  0.9930062       -166.2314
0.148                  0.9939349       -168.0919
0.152                  0.9949515       -169.9254
0.156                  0.9958972       -171.7346
0.16                    0.996628       -173.5188
0.164                   0.997037       -175.2742
0.168                  0.9970693       -176.9952
0.172                  0.9967293       -178.6752
0.176                  0.9960789        179.6914
0.18                    0.995227        178.1086
0.184                  0.9943122        176.5775
0.188                  0.9934807        175.0959
0.192                  0.9928627        173.6588
0.196                  0.9925528        172.2584
0.2                    0.9925944        170.8854
0.204                  0.9929741        169.5306
0.208                  0.9936247        168.1855
0.212                  0.9944363        166.8443
0.216                  0.9952753        165.5037
0.22                   0.9960059         164.164
0.224                  0.9965118        162.8285
0.228                  0.9967145        161.5026
0.232                  0.9965854        160.1931
0.236                  0.9961498        158.9068
0.24                   0.9954817        157.6493
0.244                  0.9946925        156.4242
0.248                  0.9939116         155.232
0.252                  0.9932669        154.0704
0.256                  0.9928618        152.9344
0.26                   0.9927602        151.8169
0.264                  0.9929753        150.7099
0.268                   0.993468        149.6059
0.272                  0.9941534        148.4989
0.276                  0.9949164        147.3854
0.28                   0.9956296        146.2647
0.284                  0.9961756        145.1393
0.288                  0.9964658        144.0138
0.292                  0.9964536        142.8947
0.296                  0.9961437        141.7889
0.3                    0.9955891        140.7025
0.304                  0.9948832        139.6399
0.308                  0.9941445         138.603
0.312                  0.9934962         137.591
0.316                  0.9930458        136.6001
0.32                   0.9928673        135.6243
0.324                  0.9929894        134.6564
0.328                  0.9933892        133.6894
0.332                   0.993998        132.7171
0.336                  0.9947122        131.7357
0.34                   0.9954115        130.7438
0.344                  0.9959778        129.7432
0.348                  0.9963173        128.7382
0.352                  0.9963736        127.7346
0.356                  0.9961385        126.7393
0.36                   0.9956525        125.7587
0.364                  0.9949984        124.7976
0.368                  0.9942868        123.8586
0.372                  0.9936381        122.9416
0.376                  0.9931624        122.0437
0.38                   0.9929395        121.1593
0.384                  0.9930067         120.282
0.388                   0.993352        119.4046
0.392                  0.9939157        118.5209
0.396                  0.9946014        117.6269
0.4                     0.995292        116.7208
0.404                  0.9958705         115.804
0.408                  0.9962388        114.8802
0.412                  0.9963346        113.9553
0.416                  0.9961425         113.036
0.42                   0.9956954        112.1286
0.424                  0.9950693        111.2385
0.428                  0.9943714        110.3685
0.432                  0.9937208         109.519
0.436                  0.9932288        108.6874
0.44                   0.9929796        107.8687
0.444                  0.9930158        107.0564
0.448                  0.9933312        106.2434
0.452                  0.9938712        105.4237
0.456                  0.9945429        104.5927
0.46                    0.995231        103.7487
0.464                  0.9958177        102.8927
0.468                  0.9962022        102.0282
0.472                  0.9963187         101.161
0.476                  0.9961472        100.2978
0.48                    0.995717        99.44511
0.484                  0.9951014        98.60833
0.488                  0.9944058        97.79066
0.492                  0.9937499        96.99258
0.496                  0.9932465        96.21172
0.5                    0.9929826        95.44327
0.504                  0.9930039        94.68072
0.508                  0.9933069        93.91708
0.512                  0.9938393        93.14603
0.516                  0.9945088        92.36302
0.52                   0.9951997         91.5661
0.524                  0.9957926        90.75618
0.528                  0.9961851        89.93685
0.532                  0.9963088        89.11382
0.536                  0.9961419        88.29381
0.54                   0.9957121        87.48359
0.544                  0.9950933        86.68859
0.548                  0.9943911        85.91218
0.552                   0.993727         85.1549
0.556                  0.9932157        84.41443
0.56                   0.9929463        83.68591
0.564                  0.9929656        82.96278
0.568                  0.9932707        82.23793
0.572                  0.9938087        81.50493
0.576                  0.9944861         80.7592
0.58                   0.9951853        79.99868
0.584                  0.9957842        79.22436
0.588                  0.9961789         78.4399
0.592                  0.9963001        77.65112
0.596                  0.9961255        76.86491
0.6                    0.9956842        76.08814
0.604                  0.9950515        75.32638
0.608                  0.9943363        74.58302
0.612                  0.9936623        73.85859
0.616                  0.9931467        73.15066
0.62                   0.9928797        72.45423
0.624                  0.9929082        71.76257
0.628                  0.9932279         71.0684
0.632                  0.9937834        70.36518
0.636                  0.9944778        69.64827
0.64                   0.9951901         68.9157
0.644                  0.9957959        68.16855
0.648                  0.9961886        67.41073
0.652                  0.9962994        66.64819
0.656                  0.9961073        65.88811
0.66                   0.9956441        65.13747
0.664                  0.9949893        64.40194
0.668                  0.9942555         63.6849
0.672                  0.9935704        62.98673
0.676                  0.9930534        62.30483
0.68                   0.9927957        61.63391
0.684                  0.9928431        60.96701
0.688                  0.9931881        60.29664
0.692                  0.9937709        59.61614
0.696                    0.99449        58.92087
0.7                    0.9952193        58.20898
0.704                  0.9958315        57.48176
0.708                  0.9962184        56.74339
0.712                  0.9963112         56.0002
0.716                  0.9960922        55.25956
0.72                   0.9955978        54.52866
0.724                  0.9949126        53.81322
0.728                  0.9941549        53.11656
0.732                  0.9934568        52.43886
0.736                  0.9929409         51.7772
0.74                   0.9926981        51.12597
0.744                  0.9927723        50.47785
0.748                  0.9931515        49.82512
0.752                  0.9937699          49.161
0.756                  0.9945195        48.48088
0.76                   0.9952688        47.78311
0.764                  0.9958861        47.06928
0.768                  0.9962624        46.34394
0.772                    0.99633        45.61379
0.776                  0.9960752        44.88652
0.78                   0.9955403        44.16953
0.784                  0.9948169         43.4686
0.788                  0.9940301        42.78688
0.792                  0.9933173        42.12432
0.796                  0.9928041        41.47759
0.8                    0.9925812        40.84065
0.804                  0.9926894        40.20579
0.808                  0.9931108          39.565
0.812                   0.993772         38.9114
0.816                  0.9945574        38.24041
0.82                   0.9953291        37.55065
0.824                  0.9959508        36.84409
0.828                  0.9963121        36.12573
0.832                  0.9963475        35.40272
0.836                  0.9960486        34.68314
0.84                   0.9954647        33.97459
0.844                   0.994696        33.28287
0.848                  0.9938755        32.61098
0.852                  0.9931469        31.95851
0.856                  0.9926384        31.32167
0.86                   0.9924408         30.6939
0.864                  0.9925902        30.06704
0.868                  0.9930618        29.43275
0.872                  0.9937735        28.78402
0.876                  0.9946007        28.11639
0.88                   0.9953975        27.42877
0.884                  0.9960232        26.72359
0.888                  0.9963659         26.0064
0.892                  0.9963633        25.28485
0.896                  0.9960125        24.56744
0.9                    0.9953722        23.86201
0.904                  0.9945518        23.17438
0.908                  0.9936937        22.50733
0.912                  0.9929483        21.86004
0.916                  0.9924472        21.22817
0.92                   0.9922803        20.60457
0.924                  0.9924785        19.98057
0.928                  0.9930089        19.34745
0.932                  0.9937791        18.69807
0.936                  0.9946542        18.02812
0.94                   0.9954796        17.33686
0.944                  0.9961094        16.62727
0.948                  0.9964308        15.90548
0.952                  0.9963843        15.17975
0.956                  0.9959746        14.45904
0.96                   0.9952702        13.75145
0.964                  0.9943916        13.06281
0.968                  0.9934915        12.39565
0.972                   0.992728        11.74867
0.976                  0.9922364         11.1169
0.98                   0.9921052        10.49253
0.984                  0.9923598        9.866278
0.988                  0.9929576         9.22905
0.992                  0.9937944        8.573563
0.996                  0.9947239        7.895649
1                      0.9955819        7.194996
1.004                  0.9962162        6.475174
1.008                  0.9965131        5.743019
1.012                  0.9964167        5.007449
1.016                  0.9959403        4.277934
1.02                    0.995163        3.562874
1.024                  0.9942186        2.868121
1.028                   0.993271        2.195912
1.032                  0.9924868        1.544405
1.036                  0.9920056       0.9079212
1.04                   0.9919146       0.2778983
1.044                  0.9922325      -0.3556103
1.048                   0.992906       -1.002155
1.052                   0.993818       -1.669173
1.056                  0.9948088       -2.360658
1.06                   0.9957035       -3.076462
1.064                  0.9963432       -3.812336
1.068                  0.9966125       -4.560667
1.072                  0.9964601       -5.311793
1.076                  0.9959077        -6.05565
1.08                   0.9950481       -6.783499
1.084                   0.994028       -7.489484
1.088                  0.9930253       -8.171628
1.092                   0.992216       -8.832408
1.096                  0.9917448       -9.478298
1.1                    0.9916974       -10.11872
1.104                  0.9920856       -10.76437
1.108                  0.9928439       -11.42528
1.112                  0.9938407       -12.10918
1.116                  0.9949014       -12.81976
1.12                   0.9958386       -13.55647
1.124                  0.9964857       -14.31421
1.128                   0.996725       -15.08458
1.132                  0.9965099       -15.85703
1.136                  0.9958719       -16.62081
1.14                   0.9949178       -17.36678
1.144                  0.9938106       -18.08902
1.148                  0.9927426       -18.78592
1.152                   0.991902       -19.46059
1.156                   0.991439       -20.12039
1.16                   0.9914384       -20.77571
1.164                  0.9919046       -21.43813
1.168                  0.9927588       -22.11833
1.172                  0.9938528       -22.82417
1.176                   0.994995       -23.55933
1.18                   0.9959835       -24.32258
1.184                   0.996642       -25.10808
1.188                  0.9968506       -25.90637
1.192                  0.9965662       -26.70594
1.196                  0.9958316       -27.49527
1.2                    0.9947692       -28.26469
1.204                    0.99356       -29.00818
1.208                   0.992414       -29.72445
1.212                  0.9915331       -30.41733
1.216                  0.9910749       -31.09519
1.22                   0.9911245       -31.76955
1.224                  0.9916781       -32.45299
1.228                  0.9926422       -33.15696
1.232                  0.9938495       -33.88967
1.236                  0.9950892       -34.65462
1.24                   0.9961421       -35.45003
1.244                    0.99682       -36.26909
1.248                  0.9969982       -37.10123
1.252                  0.9966379       -37.93381
1.256                  0.9957936       -38.75431
1.26                   0.9946051       -39.55242
1.264                  0.9932747       -40.32192
1.268                  0.9920328       -41.06186
1.272                  0.9910985       -41.77683
1.276                  0.9906396       -42.47635
1.28                   0.9907423       -43.17325
1.284                  0.9913944       -43.88135
1.288                  0.9924861       -44.61306
1.292                  0.9938291       -45.37702
1.296                  0.9951884        -46.1767
1.3                    0.9963241       -47.00964
1.304                  0.9970329       -47.86802
1.308                  0.9971833       -48.73993
1.312                  0.9967391       -49.61136
1.316                   0.995768       -50.46855
1.32                   0.9944293        -51.3004
1.324                  0.9929504       -52.10032
1.328                   0.991587       -52.86763
1.332                  0.9905797       -53.60779
1.336                  0.9901101       -54.33163
1.34                   0.9902676       -55.05357
1.344                  0.9910321       -55.78896
1.348                  0.9922758       -56.55142
1.352                  0.9937841        -57.3503
1.356                  0.9952939       -58.18904
1.36                   0.9965388       -59.06455
1.364                  0.9972951       -59.96778
1.368                  0.9974213       -60.88527
1.372                   0.996883       -61.80128
1.376                  0.9957606       -62.70054
1.38                   0.9942374       -63.57079
1.384                  0.9925706       -64.40487
1.388                  0.9910478       -65.20228
1.392                  0.9899377       -65.96946
1.396                   0.989441       -66.71883
1.4                    0.9896544       -67.46669
1.404                  0.9905497       -68.23044
1.408                  0.9919779        -69.0253
1.412                  0.9936937       -69.86159
1.416                  0.9953982       -70.74293
1.42                   0.9967901       -71.66555
1.424                  0.9976187       -72.61896
1.428                  0.9977266       -73.58776
1.432                  0.9970786       -74.55405
1.436                  0.9957697       -75.50051
1.44                   0.9940108       -76.41327
1.444                  0.9920973       -77.28431
1.448                  0.9903581       -78.11318
1.452                  0.9890996       -78.90738
1.456                  0.9885508       -79.68127
1.46                   0.9888201       -80.45368
1.464                  0.9898725       -81.24462
1.468                   0.991534       -82.07156
1.472                  0.9935203       -82.94635
1.476                  0.9954852       -83.87293
1.48                   0.9970813       -84.84683
1.484                  0.9980189       -85.85583
1.488                   0.998117       -86.88202
1.492                  0.9973354       -87.90468
1.496                  0.9957845       -88.90366
1.5                     0.993711       -89.86276
1.504                   0.991459       -90.77255
1.508                  0.9894139       -91.63246
1.512                  0.9879359       -92.45121
1.516                   0.987295       -93.24567
1.52                     0.98762       -94.03804
1.524                  0.9888707       -94.85204
1.528                  0.9908425       -95.70842
1.532                  0.9931983       -96.62122
1.536                  0.9955283       -97.59522
1.54                   0.9974183       -98.62517
1.544                  0.9985221       -99.69661
1.548                  0.9986211       -100.7883
1.552                  0.9976634       -101.8754
1.556                  0.9957777       -102.9339
1.56                   0.9932561        -103.944
1.564                  0.9905111       -104.8941
1.568                  0.9880091       -105.7829
1.572                  0.9861903       -106.6208
1.576                  0.9853887       -107.4279
1.58                   0.9857682       -108.2316
1.584                  0.9872868       -109.0608
1.588                  0.9896987       -109.9416
1.592                   0.992593       -110.8914
1.596                  0.9954643       -111.9166
1.6                    0.9977985       -113.0112
1.604                  0.9991605       -114.1574
1.608                  0.9992697       -115.3294
1.612                  0.9980501       -116.4963
1.616                  0.9956498       -117.6278
1.62                    0.992426       -118.6986
1.624                  0.9888937       -119.6929
1.628                   0.985645       -120.6084
1.632                  0.9832491       -121.4571
1.636                  0.9821487       -122.2645
1.64                   0.9825724       -123.0655
1.644                  0.9844834       -123.8984
1.648                  0.9875765       -124.7977
1.652                  0.9913245       -125.7873
1.656                  0.9950669       -126.8766
1.66                   0.9981211       -128.0587
1.664                  0.9998974       -129.3114
1.668                  0.9999999       -130.6011
1.672                  0.9982994       -131.8871
1.676                  0.9949634       -133.1283
1.68                   0.9904485       -134.2892
1.684                  0.9854403       -135.3465
1.688                  0.9807534       -136.2941
1.692                  0.9771962       -137.1464
1.696                  0.9754237       -137.9379
1.7                    0.9758041       -138.7179
1.704                  0.9783303       -139.5428
1.708                  0.9826002       -140.4644
1.712                  0.9878719       -141.5208
1.716                  0.9931829        -142.729
1.72                   0.9975077       -144.0824
1.724                  0.9999249       -145.5516
1.728                    0.99977        -147.089
1.732                  0.9967521       -148.6355
1.736                  0.9910236       -150.1274
1.74                   0.9831955       -151.5065
1.744                  0.9742829        -152.729
1.748                  0.9655815       -153.7769
1.752                   0.958471       -154.6658
1.756                  0.9541648       -155.4495
1.76                   0.9534469       -156.2154
1.764                  0.9564561        -157.072
1.768                  0.9625775       -158.1287
1.772                   0.970475       -159.4751
1.776                  0.9782507       -161.1668
1.78                   0.9836849       -163.2177
1.784                  0.9845014       -165.6014
1.788                  0.9786126       -168.2557
1.792                  0.9643252       -171.0871
1.796                   0.940505       -173.9738
1.8                    0.9067094       -176.7639
1.804                   0.863306       -179.2696
1.808                  0.8115961        178.7423
1.812                  0.7539645        177.5607
1.816                  0.6940648        177.5322
1.82                   0.6369947         179.025
1.824                  0.5892559        -177.693
1.828                  0.5580034       -172.7046
1.832                  0.5490551       -166.6989
1.836                  0.5642618       -160.8612
1.84                   0.6004732       -156.2864
1.844                  0.6512419       -153.4878
1.848                  0.7094562       -152.4234
1.852                  0.7689782        -152.779
1.856                  0.8251351       -154.1852
1.86                   0.8746624       -156.3103
1.864                  0.9155116       -158.8818
1.868                    0.94667        -161.681
1.872                  0.9680167       -164.5321
1.876                  0.9801984       -167.2932
1.88                   0.9845056       -169.8524
1.884                   0.982729       -172.1267
1.888                  0.9769843       -174.0653
1.892                  0.9694965       -175.6538
1.896                  0.9623532        -176.918
1.9                    0.9572529       -177.9215
1.904                  0.9552961       -178.7573
1.908                   0.956869        -179.531
1.912                  0.9616577        179.6585
1.916                  0.9687875        178.7364
1.92                   0.9770492         177.662
1.924                  0.9851504        176.4298
1.928                  0.9919408        175.0646
1.932                  0.9965793        173.6119
1.936                  0.9986298        172.1287
1.94                   0.9980881        170.6733
1.944                  0.9953487        169.2977
1.948                  0.9911196        168.0405
1.952                  0.9862955        166.9211
1.956                  0.9818086        165.9377
1.96                   0.9784737         165.067
1.964                  0.9768552        164.2689
1.968                  0.9771815        163.4944
1.972                  0.9793231        162.6945
1.976                  0.9828399        161.8296
1.98                   0.9870803        160.8758
1.984                  0.9913112        159.8278
1.988                  0.9948496        158.6977
1.992                  0.9971713        157.5111
1.996                  0.9979871        156.3022
2                      0.9972723        155.1073
2.004                   0.995257        153.9595
2.008                  0.9923758        152.8833
2.012                  0.9891879        151.8911
2.016                  0.9862782        150.9814
2.02                   0.9841563         150.139
2.024                  0.9831707        149.3383
2.028                  0.9834519        148.5478
2.032                  0.9848997        147.7366
2.036                  0.9872122        146.8797
2.04                   0.9899512        145.9624
2.044                   0.992627        144.9823
2.048                  0.9947865        143.9482
2.052                  0.9960893        142.8785
2.056                   0.996359        141.7969
2.06                   0.9956044        140.7288
2.064                  0.9940094        139.6962
2.068                  0.9918953         138.715
2.072                  0.9896599         137.792
2.076                   0.987706         136.924
2.08                   0.9863696        136.0987
2.084                  0.9858622        135.2967
2.088                  0.9862371        134.4959
2.092                  0.9873853        133.6753
2.096                  0.9890631        132.8187
2.1                    0.9909432        131.9181
2.104                  0.9926767        130.9739
2.108                  0.9939573        129.9947
2.112                  0.9945734        128.9951
2.116                  0.9944405        127.9931
2.12                   0.9936112        127.0066
2.124                  0.9922601        126.0504
2.128                  0.9906479        125.1334
2.132                  0.9890728        124.2577
2.136                  0.9878132        123.4179
2.14                   0.9870785        122.6024
2.144                  0.9869717        121.7957
2.148                  0.9874732        120.9815
2.152                  0.9884502        120.1461
2.156                  0.9896847        119.2802
2.16                   0.9909196        118.3812
2.164                  0.9919079         117.453
2.168                  0.9924582        116.5048
2.172                  0.9924691        115.5494
2.176                  0.9919437        114.6005
2.18                   0.9909865        113.6705
2.184                  0.9897808        112.7674
2.188                  0.9885506        111.8944
2.192                  0.9875174        111.0483
2.196                  0.9868565        110.2209
2.2                    0.9866629        109.4006
2.204                  0.9869343        108.5743
2.208                  0.9875739        107.7308
2.212                  0.9884107        106.8623
2.216                  0.9892366        105.9662
2.22                   0.9898479        105.0457
2.224                  0.9900867        104.1084
2.228                  0.9898719        103.1652
2.232                  0.9892147        102.2279
2.236                   0.988216        101.3066
2.24                    0.987047        100.4081
2.244                  0.9859131        99.53383
2.248                  0.9850137         98.6798
2.252                  0.9844981        97.83711
2.256                  0.9844348         96.9937
2.26                    0.984794        96.13678
2.264                  0.9854518        95.25547
2.268                  0.9862137        94.34312
2.272                  0.9868533        93.39871
2.276                  0.9871579        92.42709
2.28                   0.9869731        91.43818
2.284                  0.9862362        90.44495
2.288                  0.9849929        89.46094
2.292                  0.9833937        88.49742
2.296                  0.9816681        87.56088
2.3                    0.9800819         86.6512
2.304                  0.9788844        85.76118
2.308                  0.9782547        84.87727
2.312                  0.9782593        83.98197
2.316                  0.9788307        83.05697
2.32                   0.9797718        82.08692
2.324                  0.9807867        81.06247
2.328                  0.9815347        79.98238
2.332                  0.9816931        78.85397
2.336                  0.9810221          77.692
2.34                   0.9794148        76.51619
2.344                  0.9769277        75.34761
2.348                  0.9737822        74.20458
2.352                  0.9703342         73.0986