! TOUCHSTONE file generated by CST MICROWAVE STUDIO
! Date and time: Tue Jun 14 11:51:05 2022
! Project name: AppElm_antenne_patch_FR4.cst
! Parameters = {L=51.75; W=58.5; e=0.035; h=1.6; lambda=0.190476; ls=120; w0=2.54; w1=0.847; ws=120; y0=18; y1=23.8}
! Header version: 2018
! Port assignment regex: !\s*Touchstone port\s*([0-9]+)\s*=\s*(CST MWS port|CST DS port)\s*([0-9]+|Zmin|Zmax)\s*\(\"(.*)\"\)(\s*mode\s*([0-9]+))?.*
! Touchstone port assignment:
! Touchstone port 1 = CST MWS port 1 ("")
# GHz S MA R 50
0                       0.980441              -0
0.004                  0.9816857       -11.23613
0.008                  0.9852321       -22.33961
0.012                  0.9905494       -33.18712
0.016                  0.9968571        -43.6717
0.02                    1.003253       -53.70658
0.024                   1.008857        -63.2254
0.028                   1.012933       -72.18041
0.032                   1.014989       -80.53971
0.036                   1.014837       -88.28488
0.04                    1.012603       -95.40976
0.044                   1.008708       -101.9205
0.048                   1.003799       -107.8367
0.052                  0.9986541       -113.1926
0.056                  0.9940628       -118.0378
0.06                   0.9907037       -122.4358
0.064                  0.9890371       -126.4602
0.068                  0.9892322       -130.1881
0.072                    0.99115       -133.6927
0.076                  0.9943784       -137.0358
0.08                   0.9983145       -140.2625
0.084                   1.002277       -143.3988
0.088                   1.005618       -146.4527
0.092                   1.007829       -149.4172
0.096                   1.008609       -152.2751
0.1                     1.007902       -155.0044
0.104                   1.005896       -157.5842
0.108                   1.002985       -159.9993
0.112                  0.9996979       -162.2442
0.116                  0.9966111       -164.3258
0.12                   0.9942476       -166.2636
0.124                  0.9929903       -168.0873
0.128                  0.9930168       -169.8329
0.132                  0.9942748        -171.537
0.136                   0.996498       -173.2308
0.14                   0.9992621       -174.9361
0.144                   1.002066        -176.662
0.148                    1.00442       -178.4054
0.152                    1.00593        179.8476
0.156                   1.006361        178.1182
0.16                     1.00567        176.4306
0.164                   1.004004        174.8075
0.168                   1.001679        173.2665
0.172                  0.9991166         171.816
0.176                  0.9967725        170.4542
0.18                   0.9950567        169.1687
0.184                  0.9942611        167.9381
0.188                  0.9945072        166.7364
0.192                  0.9957284        165.5369
0.196                  0.9976853        164.3175
0.2                     1.000014        163.0638
0.204                   1.002292         161.772
0.208                   1.004119        160.4479
0.212                   1.005181        159.1063
0.216                   1.005304        157.7675
0.22                    1.004481        156.4537
0.224                    1.00287        155.1852
0.228                   1.000767        153.9769
0.232                   0.998549        152.8357
0.236                  0.9966126        151.7589
0.24                   0.9953012        150.7345
0.244                  0.9948426        149.7434
0.248                  0.9953095        148.7628
0.252                  0.9966074        147.7703
0.256                  0.9984936        146.7479
0.26                    1.000624        145.6853
0.264                   1.002617        144.5814
0.268                   1.004121        143.4441
0.272                   1.004875        142.2886
0.276                   1.004754        141.1346
0.28                    1.003785        140.0027
0.284                   1.002147        138.9113
0.288                   1.000134        137.8729
0.292                  0.9981063        136.8921
0.296                  0.9964264        135.9648
0.3                    0.9953938        135.0782
0.304                   0.995191        134.2138
0.308                  0.9958494        133.3499
0.312                  0.9972458        132.4665
0.316                  0.9991251        131.5483
0.32                    1.001148        130.5877
0.324                   1.002954        129.5858
0.328                   1.004224        128.5521
0.332                   1.004736        127.5024
0.336                   1.004402        126.4563
0.34                    1.003286        125.4334
0.344                   1.001585        124.4504
0.348                  0.9996026         123.518
0.352                  0.9976928        122.6388
0.356                  0.9961967        121.8068
0.36                   0.9953822        121.0083
0.364                  0.9953946        120.2245
0.368                  0.9962298        119.4344
0.372                  0.9977352        118.6193
0.376                   0.999639        117.7659
0.38                      1.0016        116.8689
0.384                   1.003269        115.9313
0.388                    1.00435        114.9641
0.392                   1.004653        113.9839
0.396                   1.004125        113.0104
0.4                     1.002859        112.0626
0.404                   1.001078         111.156
0.408                  0.9990989        110.2994
0.412                  0.9972731        109.4936
0.416                  0.9959279        108.7309
0.42                   0.9953052        107.9963
0.424                  0.9955177        107.2703
0.428                  0.9965273        106.5323
0.432                   0.998152        105.7646
0.436                   1.000101        104.9558
0.44                    1.002025        104.1021
0.444                   1.003582        103.2088
0.448                   1.004497         102.288
0.452                   1.004606        101.3578
0.456                   1.003889        100.4377
0.46                     1.00247        99.54662
0.464                   1.000599        98.69869
0.468                  0.9986067        97.90124
0.472                  0.9968484        97.15315
0.476                  0.9956397         96.4449
0.48                   0.9951998        95.76011
0.484                  0.9956098        95.07844
0.488                  0.9967977        94.37948
0.492                  0.9985513        93.64641
0.496                   1.000557        92.86919
0.5                     1.002458        92.04615
0.504                   1.003915        91.18417
0.508                   1.004669        90.29735
0.512                   1.004585        89.40449
0.516                   1.003674        88.52586
0.52                    1.002094        87.67978
0.524                   1.000122        86.87947
0.528                  0.9981055        86.13063
0.532                  0.9964061        85.43021
0.536                  0.9953294        84.76678
0.54                   0.9950722        84.12235
0.544                  0.9956842        83.47577
0.548                   0.997058        82.80654
0.552                  0.9989491        82.09871
0.556                    1.00102         81.3437
0.56                    1.002902        80.54178
0.564                   1.004259        79.70181
0.568                   1.004849        78.83965
0.572                   1.004564        77.97524
0.576                   1.003448        77.12937
0.58                    1.001695        76.32013
0.584                    0.99961        75.55969
0.588                   0.997563        74.85205
0.592                    0.99592        74.19212
0.596                  0.9949786        73.56642
0.6                    0.9949125        72.95524
0.604                  0.9957378        72.33644
0.608                  0.9973101        71.68941
0.612                  0.9993497        70.99905
0.616                   1.001493        70.25834
0.62                    1.003358        69.46959
0.624                   1.004611        68.64378
0.628                   1.005028        67.79857
0.632                   1.004528        66.95529
0.636                   1.003193        66.13531
0.64                    1.001252        65.35642
0.644                  0.9990454        64.62973
0.648                  0.9969638        63.95746
0.652                  0.9953809        63.33231
0.656                  0.9945854        62.73847
0.66                   0.9947259        62.15446
0.664                   0.995783        61.55694
0.668                  0.9975715        60.92527
0.672                  0.9997736        60.24514
0.676                   1.001997        59.51131
0.68                    1.003845         58.7282
0.684                   1.004988        57.90911
0.688                   1.005216        57.07376
0.692                   1.004483        56.24492
0.696                   1.002908        55.44464
0.7                     1.000763        54.69044
0.704                  0.9984226        53.99224
0.708                  0.9963029        53.35031
0.712                  0.9947862        52.75491
0.716                  0.9941507        52.18775
0.72                   0.9945185        51.62523
0.724                  0.9958305        51.04285
0.728                  0.9978566        50.41977
0.732                   1.000237        49.74272
0.736                   1.002548        49.00825
0.74                    1.004377        48.22323
0.744                   1.005395        47.40348
0.748                   1.005414        46.57095
0.752                    1.00442        45.75005
0.756                   1.002578        44.96358
0.76                    1.000204        44.22883
0.764                  0.9977135        43.55441
0.768                  0.9955501        42.93838
0.772                  0.9941055        42.36828
0.776                  0.9936476        41.82303
0.78                   0.9942678        41.27671
0.784                  0.9958633        40.70344
0.788                   0.998154        40.08224
0.792                   1.000733        39.40089
0.796                   1.003141        38.65803
0.8                     1.004946        37.86322
0.804                   1.005823        37.03507
0.808                   1.005604        36.19807
0.812                   1.004315        35.37852
0.816                   1.002169        34.60008
0.82                   0.9995338        33.87978
0.824                  0.9968709         33.2248
0.828                  0.9946558        32.63075
0.832                  0.9932918        32.08204
0.836                  0.9930343        31.55438
0.84                   0.9939418         31.0192
0.844                  0.9958609        30.44903
0.848                  0.9984545        29.82269
0.852                   1.001262        29.12916
0.856                   1.003783        28.36943
0.86                    1.005564        27.55605
0.864                   1.006282        26.71089
0.868                   1.005792        25.86135
0.872                   1.004165        25.03587
0.876                   1.001668        24.25924
0.88                   0.9987302        23.54826
0.884                  0.9958658        22.90849
0.888                  0.9935886        22.33273
0.892                  0.9923163        21.80176
0.896                  0.9922917        21.28755
0.9                    0.9935346        20.75838
0.904                  0.9958341        20.18485
0.908                  0.9987864         19.5455
0.912                   1.001868        18.83065
0.916                   1.004529        18.04394
0.92                    1.006291        17.20146
0.924                   1.006827         16.3288
0.928                   1.006024        15.45683
0.932                   1.003998        14.61664
0.936                   1.001084        13.83444
0.94                     0.99778        13.12691
0.944                  0.9946673        12.49782
0.948                  0.9923057        11.93669
0.952                  0.9911331           11.42
0.956                  0.9913794        10.91518
0.96                     0.99302         10.3866
0.964                   0.995776        9.802473
0.968                   0.999164        9.140834
0.972                   1.002583        8.393488
0.976                   1.005423        7.567174
0.98                     1.00717        6.682117
0.984                   1.007494        5.768451
0.988                    1.00631        4.861298
0.992                   1.003793        3.995148
0.996                   1.000355        3.198168
1                      0.9965838        2.487159
1.004                  0.9931409        1.863945
1.008                  0.9906491         1.31413
1.012                  0.9895753       0.8088837
1.016                  0.9901382       0.3098649
1.02                   0.9922619      -0.2235695
1.024                  0.9955846      -0.8264873
1.028                  0.9995235       -1.521726
1.032                    1.00338       -2.315892
1.036                   1.006462        -3.19857
1.04                    1.008207       -4.144469
1.044                   1.008277       -5.117763
1.048                   1.006615        -6.07781
1.052                   1.003466       -6.985539
1.056                  0.9993408       -7.809847
1.06                   0.9949383       -8.533311
1.064                  0.9910315       -9.156209
1.068                  0.9883307       -9.697765
1.072                  0.9873487       -10.19364
1.076                  0.9882983       -10.68995
1.08                   0.9910425       -11.23434
1.084                  0.9951145        -11.8666
1.088                  0.9998006       -12.61125
1.092                   1.004269       -13.47325
1.096                   1.007715       -14.43773
1.1                     1.009501       -15.47285
1.104                   1.009264        -16.5353
1.108                    1.00698       -17.57688
1.112                   1.002975       -18.55179
1.116                  0.9978884       -19.42428
1.12                   0.9925753       -20.17522
1.124                  0.9879672       -20.80699
1.128                  0.9849074        -21.3449
1.132                   0.983989       -21.83423
1.136                  0.9854308       -22.33224
1.14                   0.9890231       -22.89708
1.144                  0.9941574       -23.57623
1.148                  0.9999356       -24.39746
1.152                   1.005331       -25.36425
1.156                   1.009365       -26.45609
1.16                    1.011277       -27.63245
1.164                   1.010647       -28.83933
1.168                   1.007473       -30.01727
1.172                   1.002187       -31.10998
1.176                  0.9956066       -32.07339
1.18                   0.9888161       -32.88412
1.184                  0.9829976       -33.54604
1.188                  0.9792213       -34.09268
1.192                  0.9782339       -34.58361
1.196                  0.9802965       -35.09415
1.2                    0.9851128       -35.70041
1.204                  0.9918703        -36.4638
1.208                  0.9993849       -37.41931
1.212                   1.006311       -38.57013
1.216                   1.011373       -39.88857
1.22                    1.013573       -41.32165
1.224                   1.012357       -42.79922
1.228                   1.007709        -44.2435
1.232                   1.000185       -45.57957
1.236                  0.9908628       -46.74673
1.24                   0.9812055       -47.71036
1.244                  0.9728466       -48.47248
1.248                   0.967304       -49.07757
1.252                   0.965676       -49.60975
1.256                  0.9683871       -50.17901
1.26                   0.9750613       -50.89893
1.264                  0.9845636       -51.86281
1.268                  0.9951997       -53.12579
1.272                   1.005013       -54.69736
1.276                   1.012106       -56.54337
1.28                    1.014937       -58.59412
1.284                   1.012542       -60.75473
1.288                   1.004703       -62.91616
1.292                  0.9920183       -64.96702
1.296                  0.9759071       -66.80757
1.3                    0.9584893       -68.36788
1.304                  0.9423413        -69.6294
1.308                   0.930093       -70.64575
1.312                  0.9239046       -71.55217
1.316                  0.9249292       -72.55279
1.32                   0.9329351       -73.88304
1.324                  0.9462382       -75.76036
1.328                  0.9619598       -78.34534
1.332                  0.9764962       -81.72746
1.336                  0.9860273       -85.93412
1.34                   0.9869489       -90.95204
1.344                  0.9761834        -96.7509
1.348                  0.9513824       -103.3039
1.352                  0.9110508       -110.6067
1.356                   0.854627       -118.6968
1.36                   0.7825537       -127.6839
1.364                  0.6963918       -137.8023
1.368                  0.5990782       -149.5189
1.372                  0.4956014       -163.7606
1.376                  0.3947965        177.6396
1.38                   0.3136169        151.6016
1.384                   0.280656        116.9647
1.388                  0.3146795        82.44001
1.392                  0.3963081         56.5649
1.396                  0.4970844        38.06482
1.4                    0.6002728        23.87517
1.404                  0.6971628        12.18454
1.408                  0.7828441        2.077433
1.412                  0.8544386       -6.907685
1.416                  0.9104347       -15.00293
1.42                    0.950428       -22.31705
1.424                  0.9750069       -28.88798
1.428                  0.9856777       -34.71203
1.432                  0.9847826       -39.76381
1.436                  0.9753731       -44.01457
1.44                   0.9610084       -47.45254
1.444                  0.9454495       -50.10579
1.448                  0.9322382       -52.06285
1.452                  0.9242034       -53.48144
1.456                  0.9230102       -54.57456
1.46                   0.9289085       -55.57295
1.464                  0.9407987       -56.67759
1.468                  0.9565938       -58.02297
1.472                  0.9737372       -59.66424
1.476                  0.9897109       -61.58591
1.48                    1.002427       -63.72177
1.484                   1.010471       -65.97582
1.488                   1.013216       -68.24005
1.492                   1.010827       -70.40815
1.496                    1.00419       -72.38693
1.5                    0.9947618        -74.1068
1.504                  0.9843535       -75.53166
1.508                   0.974858        -76.6667
1.512                  0.9679449       -77.56084
1.516                   0.964775       -78.30047
1.52                   0.9658015        -78.9935
1.524                  0.9707129       -79.74721
1.528                  0.9785353       -80.64668
1.532                  0.9878587       -81.74063
1.536                  0.9971215        -83.0373
1.54                    1.004882       -84.50893
1.544                   1.010037       -86.10118
1.548                   1.011955       -87.74431
1.552                   1.010542       -89.36388
1.556                   1.006224       -90.89078
1.56                   0.9998635       -92.27037
1.564                  0.9926252       -93.47019
1.568                  0.9857851       -94.48583
1.572                  0.9805214       -95.34285
1.576                  0.9777127       -96.09331
1.58                   0.9777851       -96.80638
1.584                  0.9806471       -97.55478
1.588                   0.985726       -98.40044
1.592                  0.9920954       -99.38354
1.596                   0.998659       -100.5172
1.6                     1.004346       -101.7879
1.604                   1.008284       -103.1607
1.608                   1.009921       -104.5861
1.612                   1.009095       -106.0085
1.616                   1.006044       -107.3744
1.62                    1.001355       -108.6397
1.624                  0.9958648       -109.7763
1.628                  0.9905296       -110.7769
1.632                  0.9862614       -111.6569
1.636                  0.9837724       -112.4521
1.64                   0.9834536       -113.2127
1.644                  0.9853095       -113.9935
1.648                  0.9889685       -114.8435
1.652                  0.9937636        -115.797
1.656                  0.9988625       -116.8686
1.66                    1.003416        -118.052
1.664                   1.006701        -119.323
1.668                   1.008225       -120.6443
1.672                   1.007799        -121.972
1.676                   1.005553       -123.2624
1.68                     1.00191       -124.4783
1.684                  0.9975113       -125.5946
1.688                  0.9931157       -126.6024
1.692                  0.9894704        -127.511
1.696                  0.9871844       -128.3466
1.7                    0.9866244       -129.1478
1.704                  0.9878519       -129.9586
1.708                  0.9906199       -130.8197
1.712                  0.9944254       -131.7618
1.716                  0.9986059          -132.8
1.72                    1.002458       -133.9327
1.724                   1.005358       -135.1426
1.728                   1.006855       -136.4006
1.732                    1.00674       -137.6707
1.736                   1.005071        -138.916
1.74                    1.002158       -140.1039
1.744                  0.9985106        -141.211
1.748                  0.9947523       -142.2274
1.752                  0.9915199       -143.1581
1.756                  0.9893542       -144.0225
1.76                   0.9886071       -144.8516
1.764                  0.9893825       -145.6817
1.768                  0.9915213       -146.5483
1.772                  0.9946363       -147.4794
1.776                   0.998185       -148.4907
1.78                    1.001568       -149.5838
1.784                   1.004228       -150.7466
1.788                   1.005745        -151.956
1.792                   1.005891       -153.1819
1.796                    1.00467       -154.3921
1.8                     1.002306       -155.5572
1.804                  0.9992094       -156.6551
1.808                  0.9959067       -157.6746
1.812                  0.9929555       -158.6174
1.816                   0.990849        -159.498
1.82                   0.9899327       -160.3414
1.824                  0.9903455       -161.1787
1.828                  0.9919975       -162.0414
1.832                  0.9945898       -162.9557
1.836                  0.9976708       -163.9379
1.84                    1.000718       -164.9924
1.844                   1.003226       -166.1113
1.848                    1.00479       -167.2759
1.852                   1.005167       -168.4607
1.856                   1.004312       -169.6373
1.86                    1.002383       -170.7785
1.864                  0.9997091       -171.8629
1.868                  0.9967431       -172.8781
1.872                  0.9939821        -173.823
1.876                  0.9918866        -174.708
1.88                   0.9908019       -175.5535
1.884                  0.9908989       -176.3865
1.888                  0.9921456       -177.2354
1.892                  0.9943161       -178.1254
1.896                  0.9970322       -179.0735
1.9                    0.9998313        179.9133
1.904                   1.002246        178.8398
1.908                    1.00388        177.7203
1.912                   1.004474        176.5769
1.916                   1.003937        175.4351
1.92                    1.002369        174.3204
1.924                   1.000033        173.2539
1.928                  0.9973212        172.2493
1.932                  0.9946829        171.3104
1.936                  0.9925566        170.4302
1.94                   0.9912925        169.5922
1.944                  0.9910936        168.7729
1.948                  0.9919814         167.946
1.952                  0.9937935         167.087
1.956                  0.9962139        166.1778
1.96                   0.9988291        165.2093
1.964                     1.0012        164.1828
1.968                   1.002932        163.1093
1.972                   1.003744        162.0077
1.976                   1.003503        160.9011
1.98                    1.002253        159.8138
1.984                   1.000198        158.7672
1.988                  0.9976771        157.7763
1.992                  0.9951035        156.8476
1.996                  0.9929007        155.9776
2                      0.9914305         155.153
2.004                  0.9909316        154.3532
2.008                  0.9914779        153.5536
2.012                  0.9929672          152.73
2.016                  0.9951396         151.863
2.02                   0.9976231        150.9409
2.024                  0.9999981        149.9617
2.028                   1.001867        148.9332
2.032                   1.002917        147.8713
2.036                   1.002972        146.7973
2.04                    1.002018        145.7347
2.044                   1.000204        144.7054
2.048                  0.9978184        143.7265
2.052                  0.9952464        142.8072
2.056                  0.9929049        141.9473
2.06                   0.9911755         141.137
2.064                  0.9903391        140.3583
2.068                  0.9905272        139.5878
2.072                  0.9916996        138.8011
2.076                  0.9936514        137.9769
2.08                    0.996047        137.1003
2.084                  0.9984792        136.1661
2.088                   1.000536        135.1783
2.092                   1.001867        134.1502
2.096                   1.002241        133.1013
2.1                      1.00158        132.0549
2.104                  0.9999728        131.0341
2.108                  0.9976618        130.0584
2.112                  0.9950067        129.1406
2.116                  0.9924277        128.2843
2.12                   0.9903375        127.4832
2.124                  0.9890725         126.722
2.128                  0.9888343         125.978
2.132                  0.9896543        125.2261
2.136                  0.9913857         124.442
2.14                   0.9937287        123.6073
2.144                  0.9962807        122.7118
2.148                  0.9986016        121.7559
2.152                   1.000287        120.7496
2.156                   1.001033         119.711
2.16                    1.000682        118.6637
2.164                   0.999252        117.6327
2.168                   0.996934        116.6411
2.172                  0.9940658        115.7064
2.176                  0.9910816         114.837
2.18                   0.9884437         114.031
2.184                  0.9865671        113.2758
2.188                  0.9857479        112.5496
2.192                  0.9861099        111.8251
2.196                  0.9875797        111.0739
2.2                     0.989896         110.272
2.204                   0.992651        109.4029
2.208                   0.995358        108.4616
2.212                  0.9975289        107.4542
2.216                  0.9987535        106.3971
2.22                   0.9987647        105.3148
2.224                  0.9974825        104.2358
2.228                  0.9950301        103.1884
2.232                  0.9917223        102.1968
2.236                  0.9880209        101.2766
2.24                   0.9844678         100.432
2.244                  0.9815982        99.65422
2.248                  0.9798507        98.92189
2.252                  0.9794876        98.20435
2.256                   0.980543        97.46637
2.26                   0.9828084        96.67434
2.264                  0.9858621        95.80216
2.268                  0.9891355        94.83568
2.272                  0.9920028        93.77493
2.276                  0.9938819        92.63388
2.28                   0.9943252        91.43839
2.284                   0.993093        90.22226
2.288                  0.9901969        89.02256
2.292                  0.9859087        87.87425
2.296                  0.9807322        86.80464
2.3                    0.9753363        85.82832
2.304                  0.9704574        84.94333
2.308                  0.9667788         84.1295
2.312                  0.9648083        83.35012
2.316                  0.9647761        82.55704
2.32                   0.9665762        81.69854
2.324                  0.9697664        80.72845
2.328                  0.9736283        79.61405
2.332                  0.9772761        78.34139
2.336                  0.9797906        76.91706
2.34                   0.9803583        75.36677
2.344                  0.9783956        73.73148
2.348                  0.9736413        72.06195
2.352                  0.9662111        70.41213