! TOUCHSTONE file generated by CST MICROWAVE STUDIO
! Date and time: Sat May 14 12:01:03 2022
! Project name: AppElm_antenne_dipole_Alumina.cst
! Parameters = {L=33; e=0.035; f=2.45e+09; h=1.6; i=0.8; l1=2; lambda=122.449; ls=36; wl=1.7; ws=80}
! Header version: 2018
! Port assignment regex: !\s*Touchstone port\s*([0-9]+)\s*=\s*(CST MWS port|CST DS port)\s*([0-9]+|Zmin|Zmax)\s*\(\"(.*)\"\)(\s*mode\s*([0-9]+))?.*
! Touchstone port assignment:
! Touchstone port 1 = CST MWS port 1 ("")
# GHz S MA R 50
0                              1              -0
0.004                  0.9999985     -0.06987516
0.008                  0.9999941      -0.1397425
0.012                  0.9999869      -0.2095943
0.016                  0.9999765      -0.2794228
0.02                   0.9999636      -0.3492203
0.024                  0.9999476      -0.4189792
0.028                  0.9999287      -0.4886922
0.032                  0.9999073      -0.5583517
0.036                  0.9998832      -0.6279506
0.04                   0.9998563      -0.6974821
0.044                  0.9998268       -0.766939
0.048                   0.999795      -0.8363148
0.052                  0.9997608      -0.9056033
0.056                  0.9997241       -0.974798
0.06                   0.9996853       -1.043893
0.064                  0.9996443       -1.112884
0.068                  0.9996013       -1.181763
0.072                  0.9995564       -1.250527
0.076                  0.9995097       -1.319171
0.08                   0.9994613       -1.387691
0.084                  0.9994114       -1.456082
0.088                  0.9993601       -1.524341
0.092                  0.9993074       -1.592465
0.096                  0.9992537       -1.660451
0.1                    0.9991989       -1.728296
0.104                  0.9991433       -1.795998
0.108                  0.9990869       -1.863557
0.112                  0.9990299        -1.93097
0.116                  0.9989726       -1.998236
0.12                   0.9989149       -2.065356
0.124                   0.998857        -2.13233
0.128                  0.9987993       -2.199157
0.132                  0.9987417        -2.26584
0.136                  0.9986845        -2.33238
0.14                   0.9986276       -2.398778
0.144                  0.9985714       -2.465036
0.148                  0.9985159       -2.531158
0.152                  0.9984615       -2.597146
0.156                  0.9984079       -2.663004
0.16                   0.9983556       -2.728736
0.164                  0.9983047       -2.794347
0.168                  0.9982552       -2.859841
0.172                  0.9982071       -2.925224
0.176                  0.9981609         -2.9905
0.18                   0.9981165       -3.055676
0.184                  0.9980741       -3.120759
0.188                  0.9980338       -3.185755
0.192                  0.9979955        -3.25067
0.196                  0.9979596       -3.315512
0.2                    0.9979261        -3.38029
0.204                  0.9978949        -3.44501
0.208                  0.9978663        -3.50968
0.212                  0.9978403       -3.574309
0.216                   0.997817       -3.638906
0.22                   0.9977965       -3.703478
0.224                  0.9977788       -3.768037
0.228                  0.9977639        -3.83259
0.232                  0.9977519       -3.897146
0.236                  0.9977428       -3.961715
0.24                   0.9977367       -4.026306
0.244                  0.9977335        -4.09093
0.248                  0.9977333       -4.155594
0.252                   0.997736        -4.22031
0.256                  0.9977418       -4.285086
0.26                   0.9977505       -4.349934
0.264                  0.9977622        -4.41486
0.268                  0.9977767       -4.479876
0.272                  0.9977941       -4.544991
0.276                  0.9978145       -4.610213
0.28                   0.9978374       -4.675553
0.284                  0.9978633       -4.741019
0.288                  0.9978915       -4.806621
0.292                  0.9979228       -4.872365
0.296                  0.9979562       -4.938262
0.3                    0.9979919        -5.00432
0.304                  0.9980302       -5.070545
0.308                  0.9980707       -5.136946
0.312                  0.9981131       -5.203531
0.316                  0.9981579       -5.270305
0.32                   0.9982043       -5.337278
0.324                  0.9982525       -5.404454
0.328                  0.9983024       -5.471837
0.332                  0.9983537       -5.539438
0.336                  0.9984065       -5.607259
0.34                   0.9984605       -5.675304
0.344                  0.9985155       -5.743581
0.348                  0.9985715       -5.812091
0.352                  0.9986283       -5.880838
0.356                  0.9986859       -5.949826
0.36                   0.9987437       -6.019059
0.364                   0.998802       -6.088537
0.368                  0.9988605       -6.158264
0.372                  0.9989191       -6.228239
0.376                  0.9989775       -6.298466
0.38                   0.9990356       -6.368942
0.384                  0.9990932       -6.439671
0.388                  0.9991503        -6.51065
0.392                  0.9992066       -6.581879
0.396                  0.9992619       -6.653358
0.4                    0.9993164       -6.725083
0.404                  0.9993694       -6.797054
0.408                  0.9994213       -6.869266
0.412                  0.9994716        -6.94172
0.416                  0.9995202       -7.014409
0.42                   0.9995671       -7.087331
0.424                  0.9996121       -7.160481
0.428                   0.999655       -7.233856
0.432                  0.9996958        -7.30745
0.436                  0.9997345       -7.381258
0.44                   0.9997706       -7.455273
0.444                  0.9998042       -7.529493
0.448                  0.9998353       -7.603908
0.452                  0.9998638       -7.678514
0.456                  0.9998893       -7.753304
0.46                   0.9999122        -7.82827
0.464                  0.9999321       -7.903406
0.468                   0.999949       -7.978705
0.472                  0.9999628       -8.054158
0.476                  0.9999735       -8.129758
0.48                   0.9999812       -8.205497
0.484                  0.9999856       -8.281367
0.488                  0.9999868       -8.357362
0.492                  0.9999848       -8.433473
0.496                  0.9999796       -8.509689
0.5                    0.9999712       -8.586005
0.504                  0.9999595       -8.662412
0.508                  0.9999446       -8.738902
0.512                  0.9999266       -8.815465
0.516                  0.9999051         -8.8921
0.52                   0.9998807       -8.968791
0.524                  0.9998534       -9.045531
0.528                  0.9998226       -9.122317
0.532                  0.9997892       -9.199139
0.536                  0.9997528        -9.27599
0.54                   0.9997135       -9.352862
0.544                  0.9996716       -9.429748
0.548                  0.9996269       -9.506644
0.552                  0.9995796       -9.583543
0.556                    0.99953       -9.660433
0.56                    0.999478       -9.737315
0.564                  0.9994237       -9.814185
0.568                  0.9993674       -9.891031
0.572                  0.9993091       -9.967854
0.576                  0.9992488       -10.04465
0.58                   0.9991869        -10.1214
0.584                  0.9991234       -10.19813
0.588                  0.9990585       -10.27481
0.592                  0.9989923       -10.35145
0.596                  0.9989251       -10.42805
0.6                    0.9988568       -10.50459
0.604                  0.9987878       -10.58109
0.608                   0.998718       -10.65755
0.612                  0.9986478       -10.73395
0.616                  0.9985774        -10.8103
0.62                   0.9985067       -10.88661
0.624                   0.998436       -10.96287
0.628                  0.9983656       -11.03908
0.632                  0.9982954       -11.11525
0.636                  0.9982259       -11.19138
0.64                   0.9981569       -11.26747
0.644                  0.9980889       -11.34353
0.648                  0.9980218       -11.41956
0.652                  0.9979559       -11.49557
0.656                  0.9978913       -11.57155
0.66                   0.9978281       -11.64752
0.664                  0.9977667       -11.72348
0.668                   0.997707       -11.79944
0.672                  0.9976491       -11.87541
0.676                  0.9975933       -11.95139
0.68                   0.9975397       -12.02739
0.684                  0.9974883       -12.10342
0.688                  0.9974394       -12.17948
0.692                   0.997393       -12.25559
0.696                  0.9973491       -12.33176
0.7                    0.9973081       -12.40799
0.704                  0.9972699        -12.4843
0.708                  0.9972345        -12.5607
0.712                  0.9972021       -12.63719
0.716                  0.9971728       -12.71378
0.72                   0.9971466        -12.7905
0.724                  0.9971235       -12.86734
0.728                  0.9971036       -12.94433
0.732                   0.997087       -13.02146
0.736                  0.9970736       -13.09877
0.74                   0.9970635       -13.17624
0.744                  0.9970567       -13.25391
0.748                  0.9970531       -13.33177
0.752                  0.9970528       -13.40985
0.756                  0.9970557       -13.48815
0.76                   0.9970619       -13.56668
0.764                  0.9970713       -13.64547
0.768                  0.9970837       -13.72451
0.772                  0.9970993       -13.80382
0.776                  0.9971179       -13.88341
0.78                   0.9971392        -13.9633
0.784                  0.9971637       -14.04349
0.788                  0.9971908         -14.124
0.792                  0.9972206       -14.20484
0.796                  0.9972529       -14.28601
0.8                    0.9972877       -14.36753
0.804                  0.9973248       -14.44941
0.808                   0.997364       -14.53165
0.812                  0.9974053       -14.61427
0.816                  0.9974486       -14.69728
0.82                   0.9974936       -14.78068
0.824                  0.9975401       -14.86448
0.828                  0.9975881       -14.94869
0.832                  0.9976374       -15.03331
0.836                  0.9976879       -15.11836
0.84                   0.9977392       -15.20384
0.844                  0.9977911       -15.28975
0.848                  0.9978438        -15.3761
0.852                  0.9978967       -15.46291
0.856                  0.9979499       -15.55016
0.86                    0.998003       -15.63786
0.864                  0.9980559       -15.72602
0.868                  0.9981085       -15.81464
0.872                  0.9981604       -15.90372
0.876                  0.9982115       -15.99327
0.88                   0.9982616       -16.08328
0.884                  0.9983106       -16.17375
0.888                  0.9983582        -16.2647
0.892                  0.9984042        -16.3561
0.896                  0.9984484       -16.44798
0.9                    0.9984908       -16.54031
0.904                  0.9985308        -16.6331
0.908                  0.9985687       -16.72635
0.912                   0.998604       -16.82006
0.916                  0.9986366       -16.91422
0.92                   0.9986665       -17.00883
0.924                  0.9986933       -17.10388
0.928                  0.9987169       -17.19937
0.932                  0.9987373        -17.2953
0.936                   0.998754       -17.39165
0.94                   0.9987674       -17.48842
0.944                  0.9987769       -17.58561
0.948                  0.9987825       -17.68321
0.952                  0.9987843       -17.78121
0.956                   0.998782        -17.8796
0.96                   0.9987754       -17.97839
0.964                  0.9987646       -18.07755
0.968                  0.9987495       -18.17708
0.972                    0.99873       -18.27698
0.976                  0.9987058       -18.37723
0.98                   0.9986773       -18.47783
0.984                  0.9986442       -18.57876
0.988                  0.9986065       -18.68002
0.992                  0.9985641        -18.7816
0.996                   0.998517        -18.8835
1                      0.9984654       -18.98569
1.004                  0.9984091       -19.08818
1.008                  0.9983481       -19.19096
1.012                  0.9982826       -19.29402
1.016                  0.9982125       -19.39732
1.02                   0.9981379       -19.50089
1.024                  0.9980588       -19.60471
1.028                  0.9979754        -19.7088
1.032                  0.9978876       -19.81308
1.036                  0.9977956       -19.91764
1.04                   0.9976996       -20.02236
1.044                  0.9975995       -20.12735
1.048                  0.9974955       -20.23251
1.052                  0.9973877       -20.33789
1.056                  0.9972762       -20.44346
1.06                   0.9971613       -20.54919
1.064                   0.997043       -20.65516
1.068                  0.9969214       -20.76125
1.072                  0.9967969       -20.86756
1.076                  0.9966695       -20.97402
1.08                   0.9965393       -21.08069
1.084                  0.9964065       -21.18751
1.088                  0.9962717       -21.29447
1.092                  0.9961344       -21.40162
1.096                  0.9959953       -21.50891
1.1                    0.9958544       -21.61639
1.104                  0.9957119       -21.72403
1.108                  0.9955682       -21.83181
1.112                  0.9954232       -21.93979
1.116                  0.9952773       -22.04795
1.12                   0.9951307       -22.15628
1.124                  0.9949836       -22.26477
1.128                   0.994836       -22.37347
1.132                  0.9946885       -22.48235
1.136                   0.994541       -22.59142
1.14                   0.9943937       -22.70071
1.144                   0.994247        -22.8102
1.148                  0.9941011       -22.91992
1.152                  0.9939561       -23.02986
1.156                   0.993812       -23.14005
1.16                   0.9936693       -23.25048
1.164                   0.993528       -23.36118
1.168                  0.9933884       -23.47215
1.172                  0.9932505       -23.58341
1.176                  0.9931146       -23.69496
1.18                   0.9929809       -23.80683
1.184                  0.9928494       -23.91903
1.188                  0.9927202       -24.03156
1.192                  0.9925936       -24.14446
1.196                  0.9924698       -24.25772
1.2                    0.9923486       -24.37138
1.204                  0.9922303       -24.48545
1.208                  0.9921149       -24.59994
1.212                  0.9920025       -24.71487
1.216                  0.9918933       -24.83026
1.22                   0.9917871       -24.94613
1.224                  0.9916842        -25.0625
1.228                  0.9915845       -25.17938
1.232                  0.9914879        -25.2968
1.236                  0.9913946       -25.41478
1.24                   0.9913047       -25.53333
1.244                  0.9912177       -25.65249
1.248                  0.9911341       -25.77225
1.252                  0.9910536       -25.89265
1.256                  0.9909761       -26.01372
1.26                   0.9909016       -26.13545
1.264                    0.99083       -26.25789
1.268                  0.9907612       -26.38104
1.272                  0.9906951       -26.50494
1.276                  0.9906315       -26.62959
1.28                   0.9905704       -26.75502
1.284                  0.9905116       -26.88125
1.288                  0.9904548       -27.00829
1.292                     0.9904       -27.13617
1.296                   0.990347       -27.26491
1.3                    0.9902954       -27.39452
1.304                  0.9902451       -27.52503
1.308                   0.990196       -27.65644
1.312                  0.9901477       -27.78878
1.316                  0.9901001       -27.92207
1.32                   0.9900527       -28.05632
1.324                  0.9900055       -28.19154
1.328                  0.9899582       -28.32776
1.332                  0.9899104       -28.46499
1.336                  0.9898618       -28.60323
1.34                   0.9898122       -28.74251
1.344                  0.9897612       -28.88284
1.348                  0.9897087       -29.02423
1.352                  0.9896541       -29.16669
1.356                  0.9895973       -29.31024
1.36                   0.9895377       -29.45488
1.364                  0.9894753       -29.60062
1.368                  0.9894096       -29.74748
1.372                  0.9893404       -29.89546
1.376                  0.9892671       -30.04456
1.38                   0.9891898       -30.19481
1.384                  0.9891077       -30.34619
1.388                  0.9890206       -30.49872
1.392                  0.9889281       -30.65241
1.396                  0.9888302       -30.80725
1.4                    0.9887264       -30.96324
1.404                  0.9886163       -31.12041
1.408                  0.9884996       -31.27874
1.412                  0.9883759       -31.43823
1.416                  0.9882451       -31.59889
1.42                   0.9881067       -31.76072
1.424                  0.9879605       -31.92372
1.428                  0.9878062       -32.08788
1.432                  0.9876435       -32.25321
1.436                   0.987472        -32.4197
1.44                   0.9872916       -32.58736
1.444                   0.987102       -32.75616
1.448                  0.9869029       -32.92613
1.452                  0.9866942       -33.09724
1.456                  0.9864755        -33.2695
1.46                   0.9862466       -33.44291
1.464                  0.9860075       -33.61745
1.468                  0.9857576       -33.79313
1.472                  0.9854972       -33.96993
1.476                  0.9852258       -34.14785
1.48                   0.9849433       -34.32688
1.484                  0.9846496       -34.50703
1.488                  0.9843446       -34.68829
1.492                  0.9840281       -34.87064
1.496                  0.9837001       -35.05408
1.5                    0.9833603       -35.23862
1.504                  0.9830089       -35.42424
1.508                  0.9826458       -35.61092
1.512                  0.9822707       -35.79869
1.516                  0.9818839       -35.98752
1.52                   0.9814851       -36.17741
1.524                  0.9810745       -36.36836
1.528                   0.980652       -36.56037
1.532                  0.9802177       -36.75342
1.536                  0.9797715       -36.94752
1.54                   0.9793136       -37.14267
1.544                  0.9788438       -37.33886
1.548                  0.9783626        -37.5361
1.552                  0.9778698       -37.73437
1.556                  0.9773654        -37.9337
1.56                   0.9768498       -38.13406
1.564                  0.9763229       -38.33547
1.568                  0.9757849       -38.53793
1.572                  0.9752359       -38.74144
1.576                   0.974676       -38.94602
1.58                   0.9741056       -39.15165
1.584                  0.9735246       -39.35834
1.588                  0.9729332       -39.56613
1.592                  0.9723316         -39.775
1.596                  0.9717202       -39.98496
1.6                    0.9710988       -40.19603
1.604                  0.9704677       -40.40823
1.608                  0.9698272       -40.62156
1.612                  0.9691775       -40.83603
1.616                  0.9685186       -41.05168
1.62                   0.9678509        -41.2685
1.624                  0.9671745       -41.48654
1.628                  0.9664896       -41.70578
1.632                  0.9657964       -41.92628
1.636                  0.9650949       -42.14804
1.64                   0.9643854        -42.3711
1.644                  0.9636683       -42.59548
1.648                  0.9629432        -42.8212
1.652                  0.9622107        -43.0483
1.656                  0.9614708       -43.27679
1.66                   0.9607237       -43.50673
1.664                  0.9599694       -43.73813
1.668                  0.9592083       -43.97104
1.672                    0.95844       -44.20549
1.676                  0.9576649       -44.44152
1.68                    0.956883       -44.67916
1.684                  0.9560943       -44.91845
1.688                  0.9552989       -45.15945
1.692                  0.9544966       -45.40219
1.696                  0.9536879        -45.6467
1.7                    0.9528721       -45.89304
1.704                  0.9520496       -46.14126
1.708                  0.9512203        -46.3914
1.712                  0.9503838       -46.64352
1.716                  0.9495401       -46.89767
1.72                   0.9486893       -47.15387
1.724                  0.9478311       -47.41221
1.728                  0.9469651       -47.67272
1.732                  0.9460913       -47.93547
1.736                  0.9452094       -48.20049
1.74                   0.9443189       -48.46787
1.744                  0.9434199       -48.73764
1.748                  0.9425117       -49.00988
1.752                  0.9415942       -49.28462
1.756                  0.9406668       -49.56194
1.76                   0.9397293       -49.84189
1.764                  0.9387811       -50.12452
1.768                  0.9378216       -50.40992
1.772                  0.9368504       -50.69813
1.776                  0.9358673        -50.9892
1.78                   0.9348712       -51.28322
1.784                  0.9338616       -51.58023
1.788                  0.9328381       -51.88029
1.792                     0.9318       -52.18347
1.796                  0.9307463       -52.48985
1.8                    0.9296768       -52.79945
1.804                  0.9285903       -53.11237
1.808                  0.9274863       -53.42864
1.812                  0.9263637       -53.74835
1.816                   0.925222       -54.07154
1.82                   0.9240603       -54.39829
1.824                  0.9228776       -54.72863
1.828                  0.9216729       -55.06266
1.832                  0.9204455       -55.40041
1.836                  0.9191943       -55.74196
1.84                   0.9179184       -56.08735
1.844                  0.9166168       -56.43665
1.848                  0.9152885        -56.7899
1.852                  0.9139323       -57.14719
1.856                  0.9125476       -57.50854
1.86                   0.9111327       -57.87403
1.864                  0.9096869       -58.24371
1.868                  0.9082089       -58.61764
1.872                  0.9066979       -58.99586
1.876                  0.9051525       -59.37844
1.88                   0.9035716       -59.76542
1.884                  0.9019542       -60.15685
1.888                  0.9002989       -60.55278
1.892                  0.8986047       -60.95327
1.896                  0.8968704       -61.35836
1.9                    0.8950948       -61.76811
1.904                  0.8932767       -62.18257
1.908                  0.8914151       -62.60175
1.912                  0.8895086       -63.02576
1.916                  0.8875561       -63.45458
1.92                   0.8855564        -63.8883
1.924                  0.8835084       -64.32695
1.928                  0.8814107       -64.77057
1.932                  0.8792625        -65.2192
1.936                  0.8770624       -65.67291
1.94                   0.8748095       -66.13169
1.944                  0.8725024       -66.59564
1.948                    0.87014       -67.06476
1.952                  0.8677214        -67.5391
1.956                  0.8652454       -68.01872
1.96                   0.8627109       -68.50364
1.964                  0.8601169       -68.99388
1.968                  0.8574623       -69.48954
1.972                  0.8547462        -69.9906
1.976                  0.8519675       -70.49715
1.98                   0.8491255       -71.00917
1.984                   0.846219       -71.52675
1.988                  0.8432471       -72.04991
1.992                  0.8402092       -72.57869
1.996                   0.837104       -73.11314
2                      0.8339311        -73.6533
2.004                  0.8306895        -74.1992
2.008                  0.8273785       -74.75088
2.012                  0.8239974       -75.30839
2.016                  0.8205456       -75.87177
2.02                   0.8170224       -76.44108
2.024                  0.8134271       -77.01636
2.028                  0.8097593       -77.59764
2.032                  0.8060184       -78.18498
2.036                  0.8022038       -78.77843
2.04                   0.7983153       -79.37804
2.044                  0.7943524       -79.98385
2.048                  0.7903148       -80.59594
2.052                  0.7862021       -81.21435
2.056                  0.7820143       -81.83914
2.06                   0.7777509       -82.47036
2.064                  0.7734119        -83.1081
2.068                  0.7689971       -83.75239
2.072                  0.7645066       -84.40333
2.076                  0.7599403       -85.06099
2.08                   0.7552983       -85.72541
2.084                  0.7505806       -86.39671
2.088                  0.7457875       -87.07495
2.092                  0.7409193       -87.76021
2.096                   0.735976       -88.45258
2.1                    0.7309583       -89.15217
2.104                  0.7258662       -89.85907
2.108                  0.7207005       -90.57337
2.112                  0.7154615       -91.29519
2.116                  0.7101499       -92.02464
2.12                   0.7047662       -92.76182
2.124                  0.6993112       -93.50688
2.128                  0.6937856       -94.25995
2.132                  0.6881904       -95.02116
2.136                  0.6825264       -95.79063
2.14                   0.6767943       -96.56854
2.144                  0.6709956       -97.35504
2.148                   0.665131       -98.15029
2.152                  0.6592019       -98.95446
2.156                  0.6532095       -99.76775
2.16                   0.6471549       -100.5903
2.164                  0.6410398       -101.4224
2.168                  0.6348656       -102.2642
2.172                  0.6286337        -103.116
2.176                  0.6223457       -103.9779
2.18                   0.6160033       -104.8503
2.184                  0.6096084       -105.7333
2.188                  0.6031628       -106.6273
2.192                  0.5966684       -107.5325
2.196                  0.5901272       -108.4492
2.2                    0.5835413       -109.3779
2.204                   0.576913       -110.3187
2.208                  0.5702444        -111.272
2.212                  0.5635381       -112.2382
2.216                  0.5567965       -113.2177
2.22                    0.550022       -114.2109
2.224                  0.5432176       -115.2182
2.228                  0.5363859       -116.2401
2.232                  0.5295298       -117.2769
2.236                  0.5226524       -118.3293
2.24                   0.5157566       -119.3977
2.244                  0.5088458       -120.4826
2.248                  0.5019234       -121.5847
2.252                  0.4949929       -122.7044
2.256                  0.4880579       -123.8425
2.26                    0.481122       -124.9995
2.264                  0.4741894       -126.1762
2.268                   0.467264       -127.3731
2.272                    0.46035       -128.5911
2.276                  0.4534518       -129.8309
2.28                   0.4465741       -131.0933
2.284                  0.4397214       -132.3791
2.288                  0.4328986       -133.6892
2.292                  0.4261111       -135.0244
2.296                  0.4193638       -136.3856
2.3                    0.4126623       -137.7737
2.304                  0.4060125       -139.1898
2.308                    0.39942       -140.6347
2.312                  0.3928912       -142.1095
2.316                  0.3864322       -143.6151
2.32                   0.3800497       -145.1526
2.324                  0.3737505       -146.7229
2.328                  0.3675417       -148.3271
2.332                  0.3614304       -149.9662
2.336                  0.3554243       -151.6411
2.34                    0.349531       -153.3527
2.344                  0.3437587        -155.102
2.348                  0.3381153       -156.8896
2.352                  0.3326093       -158.7165