! TOUCHSTONE file generated by CST MICROWAVE STUDIO
! Date and time: Sat May 14 12:00:57 2022
! Project name: AppElm_antenne_dipole_Alumina.cst
! Parameters = {L=33; e=0.035; f=2.45e+09; h=1.6; i=0.8; l1=2; lambda=122.449; ls=25.5; wl=1.7; ws=80}
! Header version: 2018
! Port assignment regex: !\s*Touchstone port\s*([0-9]+)\s*=\s*(CST MWS port|CST DS port)\s*([0-9]+|Zmin|Zmax)\s*\(\"(.*)\"\)(\s*mode\s*([0-9]+))?.*
! Touchstone port assignment:
! Touchstone port 1 = CST MWS port 1 ("")
# GHz S MA R 50
0                              1              -0
0.004                  0.9999987     -0.06961957
0.008                  0.9999945      -0.1392319
0.012                  0.9999875      -0.2088296
0.016                  0.9999781      -0.2784056
0.02                   0.9999657      -0.3479527
0.024                  0.9999508      -0.4174637
0.028                  0.9999332      -0.4869317
0.032                  0.9999129        -0.55635
0.036                  0.9998902      -0.6257117
0.04                    0.999865      -0.6950103
0.044                  0.9998374      -0.7642393
0.048                  0.9998075      -0.8333927
0.052                  0.9997754      -0.9024645
0.056                  0.9997411      -0.9714488
0.06                   0.9997045        -1.04034
0.064                  0.9996661       -1.109134
0.068                  0.9996258       -1.177824
0.072                  0.9995835       -1.246407
0.076                  0.9995397       -1.314877
0.08                   0.9994942       -1.383232
0.084                  0.9994474       -1.451466
0.088                  0.9993992       -1.519578
0.092                  0.9993498       -1.587564
0.096                  0.9992994        -1.65542
0.1                     0.999248       -1.723146
0.104                  0.9991956       -1.790739
0.108                  0.9991428       -1.858198
0.112                  0.9990893       -1.925521
0.116                  0.9990355       -1.992708
0.12                   0.9989814        -2.05976
0.124                   0.998927       -2.126674
0.128                  0.9988729       -2.193453
0.132                  0.9988188       -2.260098
0.136                  0.9987651       -2.326609
0.14                   0.9987117       -2.392988
0.144                   0.998659       -2.459239
0.148                  0.9986069       -2.525363
0.152                  0.9985557       -2.591363
0.156                  0.9985055       -2.657243
0.16                   0.9984564       -2.723006
0.164                  0.9984086       -2.788657
0.168                  0.9983622         -2.8542
0.172                  0.9983172       -2.919641
0.176                  0.9982738       -2.984984
0.18                   0.9982321       -3.050235
0.184                  0.9981924         -3.1154
0.188                  0.9981545       -3.180486
0.192                  0.9981186       -3.245498
0.196                  0.9980849       -3.310445
0.2                    0.9980535       -3.375332
0.204                  0.9980243       -3.440168
0.208                  0.9979976       -3.504959
0.212                  0.9979732       -3.569715
0.216                  0.9979515       -3.634443
0.22                   0.9979321        -3.69915
0.224                  0.9979154       -3.763846
0.228                  0.9979016        -3.82854
0.232                  0.9978904        -3.89324
0.236                  0.9978818       -3.957955
0.24                   0.9978761       -4.022693
0.244                  0.9978732       -4.087464
0.248                   0.997873       -4.152278
0.252                  0.9978756       -4.217142
0.256                  0.9978811       -4.282066
0.26                   0.9978894       -4.347059
0.264                  0.9979004        -4.41213
0.268                   0.997914       -4.477288
0.272                  0.9979304       -4.542542
0.276                  0.9979495       -4.607901
0.28                   0.9979711       -4.673373
0.284                  0.9979953       -4.738967
0.288                  0.9980221        -4.80469
0.292                  0.9980511       -4.870553
0.296                  0.9980825       -4.936561
0.3                    0.9981162       -5.002724
0.304                  0.9981522       -5.069047
0.308                  0.9981901        -5.13554
0.312                  0.9982301       -5.202208
0.316                   0.998272       -5.269059
0.32                   0.9983155       -5.336099
0.324                  0.9983608       -5.403333
0.328                  0.9984076       -5.470768
0.332                  0.9984558       -5.538408
0.336                  0.9985053        -5.60626
0.34                   0.9985559       -5.674327
0.344                  0.9986075       -5.742614
0.348                  0.9986601       -5.811124
0.352                  0.9987133       -5.879862
0.356                  0.9987673       -5.948831
0.36                   0.9988217       -6.018031
0.364                  0.9988763       -6.087468
0.368                  0.9989311       -6.157141
0.372                   0.998986       -6.227053
0.376                  0.9990406       -6.297204
0.38                   0.9990951       -6.367596
0.384                   0.999149       -6.438228
0.388                  0.9992025         -6.5091
0.392                  0.9992552        -6.58021
0.396                  0.9993071       -6.651559
0.4                     0.999358       -6.723144
0.404                  0.9994077       -6.794965
0.408                  0.9994561       -6.867018
0.412                  0.9995032         -6.9393
0.416                  0.9995486        -7.01181
0.42                   0.9995925       -7.084541
0.424                  0.9996345       -7.157493
0.428                  0.9996746       -7.230661
0.432                  0.9997127       -7.304038
0.436                  0.9997487       -7.377621
0.44                   0.9997825       -7.451406
0.444                  0.9998137       -7.525385
0.448                  0.9998427       -7.599553
0.452                  0.9998691       -7.673906
0.456                  0.9998928       -7.748437
0.46                    0.999914       -7.823138
0.464                  0.9999323       -7.898004
0.468                  0.9999478       -7.973027
0.472                  0.9999606         -8.0482
0.476                  0.9999703       -8.123518
0.48                   0.9999771       -8.198971
0.484                  0.9999809       -8.274554
0.488                  0.9999817       -8.350258
0.492                  0.9999795       -8.426074
0.496                  0.9999742       -8.501997
0.5                    0.9999659        -8.57802
0.504                  0.9999547       -8.654133
0.508                  0.9999403        -8.73033
0.512                  0.9999227       -8.806604
0.516                  0.9999025       -8.882943
0.52                   0.9998791       -8.959347
0.524                  0.9998528       -9.035804
0.528                  0.9998237       -9.112308
0.532                  0.9997919        -9.18885
0.536                  0.9997572       -9.265426
0.54                     0.99972        -9.34203
0.544                  0.9996801       -9.418653
0.548                  0.9996377        -9.49529
0.552                  0.9995929       -9.571936
0.556                  0.9995459       -9.648582
0.56                   0.9994965       -9.725228
0.564                  0.9994453       -9.801865
0.568                   0.999392        -9.87849
0.572                  0.9993367       -9.955097
0.576                  0.9992798       -10.03168
0.58                   0.9992212       -10.10825
0.584                  0.9991611       -10.18478
0.588                  0.9990997       -10.26128
0.592                  0.9990371       -10.33776
0.596                  0.9989735       -10.41419
0.6                     0.998909       -10.49059
0.604                  0.9988436       -10.56696
0.608                  0.9987777       -10.64328
0.612                  0.9987114       -10.71957
0.616                  0.9986447       -10.79581
0.62                    0.998578       -10.87203
0.624                  0.9985112        -10.9482
0.628                  0.9984446       -11.02434
0.632                  0.9983783       -11.10044
0.636                  0.9983125       -11.17652
0.64                   0.9982473       -11.25257
0.644                  0.9981831        -11.3286
0.648                  0.9981197       -11.40461
0.652                  0.9980574        -11.4806
0.656                  0.9979962       -11.55659
0.66                   0.9979366       -11.63256
0.664                  0.9978784       -11.70855
0.668                  0.9978218       -11.78453
0.672                  0.9977672       -11.86053
0.676                  0.9977143       -11.93656
0.68                   0.9976635       -12.01261
0.684                  0.9976149        -12.0887
0.688                  0.9975685       -12.16483
0.692                  0.9975245       -12.24102
0.696                  0.9974829       -12.31727
0.7                    0.9974439       -12.39359
0.704                  0.9974076       -12.46999
0.708                  0.9973739       -12.54648
0.712                   0.997343       -12.62307
0.716                  0.9973151       -12.69978
0.72                     0.99729        -12.7766
0.724                  0.9972678       -12.85356
0.728                  0.9972487       -12.93066
0.732                  0.9972325       -13.00791
0.736                  0.9972196       -13.08533
0.74                   0.9972095       -13.16292
0.744                  0.9972026        -13.2407
0.748                  0.9971987       -13.31868
0.752                  0.9971979       -13.39688
0.756                  0.9972002       -13.47529
0.76                   0.9972054       -13.55393
0.764                  0.9972136       -13.63282
0.768                  0.9972248       -13.71196
0.772                  0.9972388       -13.79137
0.776                  0.9972556       -13.87106
0.78                   0.9972751       -13.95103
0.784                  0.9972973        -14.0313
0.788                  0.9973221       -14.11188
0.792                  0.9973492       -14.19278
0.796                   0.997379       -14.27401
0.8                    0.9974108       -14.35558
0.804                  0.9974448       -14.43749
0.808                  0.9974809       -14.51977
0.812                  0.9975189        -14.6024
0.816                  0.9975586       -14.68542
0.82                   0.9975999       -14.76881
0.824                  0.9976427        -14.8526
0.828                  0.9976869       -14.93678
0.832                  0.9977322       -15.02137
0.836                  0.9977785       -15.10636
0.84                   0.9978256       -15.19178
0.844                  0.9978734       -15.27761
0.848                  0.9979216       -15.36388
0.852                  0.9979702       -15.45057
0.856                   0.998019        -15.5377
0.86                   0.9980676       -15.62527
0.864                   0.998116       -15.71328
0.868                   0.998164       -15.80174
0.872                  0.9982114       -15.89065
0.876                   0.998258       -15.98001
0.88                   0.9983037       -16.06981
0.884                  0.9983482       -16.16007
0.888                  0.9983914       -16.25078
0.892                   0.998433       -16.34194
0.896                  0.9984729       -16.43354
0.9                    0.9985109        -16.5256
0.904                  0.9985469       -16.61811
0.908                  0.9985807       -16.71106
0.912                  0.9986121       -16.80445
0.916                  0.9986409       -16.89828
0.92                   0.9986669       -16.99255
0.924                  0.9986902       -17.08724
0.928                  0.9987105       -17.18236
0.932                  0.9987274       -17.27791
0.936                  0.9987412       -17.37387
0.94                   0.9987516       -17.47025
0.944                  0.9987583       -17.56703
0.948                  0.9987614        -17.6642
0.952                  0.9987607       -17.76177
0.956                  0.9987562       -17.85973
0.96                   0.9987477       -17.95806
0.964                  0.9987351       -18.05677
0.968                  0.9987184       -18.15584
0.972                  0.9986976       -18.25527
0.976                  0.9986724       -18.35505
0.98                   0.9986429       -18.45516
0.984                  0.9986092       -18.55561
0.988                   0.998571       -18.65638
0.992                  0.9985284       -18.75748
0.996                  0.9984816       -18.85887
1                      0.9984301       -18.96057
1.004                  0.9983743       -19.06256
1.008                  0.9983142       -19.16482
1.012                  0.9982498       -19.26738
1.016                  0.9981809       -19.37019
1.02                   0.9981078       -19.47327
1.024                  0.9980304       -19.57659
1.028                  0.9979489       -19.68017
1.032                  0.9978633       -19.78396
1.036                  0.9977738       -19.88802
1.04                   0.9976802       -19.99228
1.044                   0.997583       -20.09678
1.048                  0.9974821       -20.20147
1.052                  0.9973775       -20.30636
1.056                  0.9972694       -20.41146
1.06                    0.997158       -20.51676
1.064                  0.9970434       -20.62224
1.068                  0.9969258       -20.72795
1.072                  0.9968054       -20.83382
1.076                  0.9966821       -20.93985
1.08                   0.9965563        -21.0461
1.084                  0.9964282       -21.15246
1.088                  0.9962978       -21.25903
1.092                  0.9961653        -21.3658
1.096                   0.996031       -21.47271
1.1                     0.995895       -21.57984
1.104                  0.9957575        -21.6871
1.108                  0.9956187       -21.79455
1.112                  0.9954789       -21.90222
1.116                  0.9953381       -22.01006
1.12                   0.9951966       -22.11805
1.124                  0.9950545       -22.22627
1.128                  0.9949121       -22.33464
1.132                  0.9947696       -22.44324
1.136                  0.9946273       -22.55205
1.14                   0.9944851       -22.66107
1.144                  0.9943434       -22.77032
1.148                  0.9942024       -22.87979
1.152                  0.9940622       -22.98951
1.156                  0.9939229       -23.09948
1.16                   0.9937848        -23.2097
1.164                  0.9936482        -23.3202
1.168                  0.9935129       -23.43098
1.172                  0.9933794       -23.54205
1.176                  0.9932476       -23.65343
1.18                   0.9931179       -23.76513
1.184                  0.9929901       -23.87717
1.188                  0.9928648       -23.98955
1.192                  0.9927417       -24.10229
1.196                   0.992621       -24.21542
1.2                    0.9925029       -24.32894
1.204                  0.9923874       -24.44286
1.208                  0.9922747       -24.55722
1.212                  0.9921648       -24.67202
1.216                  0.9920577       -24.78728
1.22                   0.9919534       -24.90303
1.224                  0.9918522       -25.01926
1.228                   0.991754       -25.13602
1.232                  0.9916588       -25.25331
1.236                  0.9915665       -25.37115
1.24                   0.9914772       -25.48957
1.244                  0.9913908       -25.60858
1.248                  0.9913074        -25.7282
1.252                  0.9912268       -25.84845
1.256                   0.991149       -25.96935
1.26                    0.991074       -26.09092
1.264                  0.9910016       -26.21318
1.268                  0.9909318       -26.33615
1.272                  0.9908644       -26.45985
1.276                  0.9907994       -26.58429
1.28                   0.9907366        -26.7095
1.284                  0.9906758        -26.8355
1.288                  0.9906169        -26.9623
1.292                  0.9905596       -27.08992
1.296                  0.9905038       -27.21838
1.3                    0.9904495        -27.3477
1.304                  0.9903963       -27.47789
1.308                   0.990344       -27.60898
1.312                  0.9902924       -27.74097
1.316                  0.9902412        -27.8739
1.32                   0.9901902       -28.00776
1.324                  0.9901393       -28.14258
1.328                   0.990088       -28.27837
1.332                  0.9900362       -28.41515
1.336                  0.9899836       -28.55292
1.34                   0.9899297       -28.69171
1.344                  0.9898745       -28.83152
1.348                  0.9898176       -28.97237
1.352                  0.9897586       -29.11427
1.356                  0.9896973       -29.25723
1.36                   0.9896335       -29.40125
1.364                  0.9895668       -29.54636
1.368                  0.9894968       -29.69255
1.372                  0.9894232       -29.83984
1.376                  0.9893457       -29.98823
1.38                    0.989264       -30.13773
1.384                  0.9891778       -30.28835
1.388                  0.9890868       -30.44009
1.392                  0.9889906       -30.59295
1.396                  0.9888889       -30.74695
1.4                    0.9887815       -30.90208
1.404                  0.9886679       -31.05835
1.408                  0.9885481       -31.21575
1.412                  0.9884213       -31.37431
1.416                  0.9882877       -31.53399
1.42                   0.9881468       -31.69483
1.424                  0.9879983       -31.85681
1.428                  0.9878419       -32.01992
1.432                  0.9876774       -32.18419
1.436                  0.9875045       -32.34959
1.44                   0.9873229       -32.51613
1.444                  0.9871325        -32.6838
1.448                  0.9869328       -32.85262
1.452                  0.9867239       -33.02255
1.456                  0.9865054       -33.19362
1.46                   0.9862769        -33.3658
1.464                  0.9860387       -33.53911
1.468                  0.9857902       -33.71352
1.472                  0.9855313       -33.88906
1.476                   0.985262       -34.06569
1.48                   0.9849818       -34.24343
1.484                  0.9846911       -34.42225
1.488                  0.9843893       -34.60217
1.492                  0.9840765       -34.78318
1.496                  0.9837527       -34.96526
1.5                    0.9834175       -35.14843
1.504                   0.983071       -35.33266
1.508                  0.9827134       -35.51795
1.512                  0.9823443       -35.70431
1.516                  0.9819638       -35.89173
1.52                   0.9815717        -36.0802
1.524                  0.9811683       -36.26972
1.528                  0.9807532       -36.46029
1.532                  0.9803269       -36.65191
1.536                  0.9798892       -36.84456
1.54                   0.9794402       -37.03826
1.544                  0.9789798       -37.23301
1.548                  0.9785082       -37.42879
1.552                  0.9780255       -37.62561
1.556                  0.9775315       -37.82348
1.56                   0.9770268       -38.02238
1.564                  0.9765111       -38.22234
1.568                  0.9759847       -38.42334
1.572                  0.9754476       -38.62541
1.576                  0.9749002       -38.82853
1.58                   0.9743423       -39.03271
1.584                  0.9737743       -39.23797
1.588                  0.9731961       -39.44432
1.592                  0.9726082       -39.65175
1.596                  0.9720104       -39.86028
1.6                    0.9714031       -40.06993
1.604                  0.9707863       -40.28071
1.608                  0.9701604       -40.49262
1.612                  0.9695254       -40.70569
1.616                  0.9688816       -40.91993
1.62                   0.9682289       -41.13537
1.624                  0.9675677       -41.35201
1.628                  0.9668982       -41.56988
1.632                  0.9662205       -41.78899
1.636                  0.9655347       -42.00939
1.64                    0.964841       -42.23108
1.644                  0.9641394       -42.45409
1.648                  0.9634303       -42.67846
1.652                  0.9627138        -42.9042
1.656                  0.9619896       -43.13136
1.66                   0.9612584       -43.35995
1.664                    0.96052       -43.59001
1.668                  0.9597745       -43.82159
1.672                  0.9590219        -44.0547
1.676                  0.9582625       -44.28939
1.68                   0.9574962       -44.52569
1.684                  0.9567229       -44.76365
1.688                  0.9559427        -45.0033
1.692                  0.9551558       -45.24468
1.696                  0.9543618       -45.48786
1.7                    0.9535611       -45.73285
1.704                  0.9527531       -45.97972
1.708                  0.9519382       -46.22849
1.712                   0.951116       -46.47923
1.716                  0.9502863       -46.73198
1.72                   0.9494492       -46.98679
1.724                  0.9486044       -47.24371
1.728                  0.9477516       -47.50279
1.732                  0.9468908       -47.76409
1.736                  0.9460215       -48.02766
1.74                   0.9451436       -48.29354
1.744                  0.9442566        -48.5618
1.748                  0.9433602        -48.8325
1.752                  0.9424543       -49.10568
1.756                  0.9415382        -49.3814
1.76                   0.9406116       -49.65972
1.764                   0.939674       -49.94071
1.768                  0.9387248       -50.22441
1.772                  0.9377637       -50.51089
1.776                  0.9367902        -50.8002
1.78                   0.9358036        -51.0924
1.784                  0.9348032       -51.38757
1.788                  0.9337886       -51.68573
1.792                  0.9327589       -51.98698
1.796                  0.9317137       -52.29134
1.8                    0.9306521       -52.59891
1.804                  0.9295735       -52.90971
1.808                  0.9284769       -53.22385
1.812                  0.9273619       -53.54133
1.816                  0.9262273       -53.86224
1.82                   0.9250725       -54.18663
1.824                  0.9238964       -54.51458
1.828                  0.9226983       -54.84612
1.832                  0.9214774       -55.18132
1.836                  0.9202326       -55.52024
1.84                   0.9189628       -55.86294
1.844                  0.9176673       -56.20945
1.848                   0.916345       -56.55986
1.852                  0.9149949       -56.91419
1.856                  0.9136159       -57.27253
1.86                   0.9122069       -57.63492
1.864                  0.9107671        -58.0014
1.868                  0.9092952       -58.37203
1.872                  0.9077903       -58.74686
1.876                   0.906251       -59.12595
1.88                   0.9046765       -59.50934
1.884                  0.9030653       -59.89709
1.888                  0.9014166       -60.28924
1.892                  0.8997292       -60.68584
1.896                  0.8980018       -61.08694
1.9                    0.8962335       -61.49258
1.904                   0.894423       -61.90281
1.908                  0.8925689       -62.31767
1.912                  0.8906706       -62.73721
1.916                  0.8887265       -63.16147
1.92                   0.8867356       -63.59052
1.924                  0.8846968       -64.02434
1.928                  0.8826089       -64.46303
1.932                  0.8804707        -64.9066
1.936                  0.8782813       -65.35511
1.94                   0.8760393       -65.80858
1.944                  0.8737439       -66.26705
1.948                  0.8713937       -66.73058
1.952                  0.8689878       -67.19918
1.956                  0.8665251       -67.67292
1.96                   0.8640045       -68.15183
1.964                   0.861425       -68.63592
1.968                  0.8587858       -69.12524
1.972                  0.8560857       -69.61986
1.976                  0.8533236       -70.11977
1.98                   0.8504989       -70.62504
1.984                  0.8476105       -71.13568
1.988                  0.8446573       -71.65174
1.992                   0.841639       -72.17327
1.996                  0.8385541        -72.7003
2                      0.8354024       -73.23285
2.004                  0.8321826       -73.77097
2.008                  0.8288944       -74.31471
2.012                  0.8255368        -74.8641
2.016                  0.8221093       -75.41918
2.02                   0.8186112       -75.97997
2.024                  0.8150419       -76.54657
2.028                  0.8114009       -77.11897
2.032                  0.8076876       -77.69722
2.036                  0.8039016       -78.28138
2.04                   0.8000424       -78.87151
2.044                  0.7961095       -79.46762
2.048                  0.7921028        -80.0698
2.052                  0.7880219       -80.67805
2.056                  0.7838665       -81.29248
2.06                   0.7796364       -81.91312
2.064                  0.7753314       -82.54002
2.068                  0.7709514       -83.17324
2.072                  0.7664965       -83.81288
2.076                  0.7619663       -84.45895
2.08                   0.7573613       -85.11154
2.084                  0.7526812       -85.77074
2.088                  0.7479263        -86.4366
2.092                  0.7430968       -87.10921
2.096                  0.7381929       -87.78865
2.1                    0.7332151         -88.475
2.104                  0.7281634       -89.16835
2.108                  0.7230384        -89.8688
2.112                  0.7178407       -90.57643
2.116                  0.7125705       -91.29138
2.12                   0.7072287       -92.01371
2.124                  0.7018159       -92.74357
2.128                  0.6963326       -93.48107
2.132                  0.6907798       -94.22632
2.136                  0.6851582       -94.97947
2.14                   0.6794688       -95.74066
2.144                  0.6737124          -96.51
2.148                  0.6678902       -97.28767
2.152                  0.6620032       -98.07385
2.156                  0.6560525       -98.86867
2.16                   0.6500395       -99.67233
2.164                  0.6439653        -100.485
2.168                  0.6378313       -101.3069
2.172                   0.631639       -102.1382
2.176                    0.62539       -102.9791
2.18                   0.6190857       -103.8299
2.184                  0.6127277       -104.6908
2.188                  0.6063181       -105.5621
2.192                  0.5998581       -106.4439
2.196                  0.5933502       -107.3367
2.2                    0.5867959       -108.2406
2.204                  0.5801976       -109.1561
2.208                  0.5735573       -110.0833
2.212                  0.5668773       -111.0227
2.216                  0.5601597       -111.9746
2.22                    0.553407       -112.9394
2.224                  0.5466217       -113.9174
2.228                  0.5398064       -114.9092
2.232                   0.532964        -115.915
2.236                  0.5260968       -116.9354
2.24                   0.5192083       -117.9709
2.244                   0.512301        -119.022
2.248                  0.5053783        -120.089
2.252                  0.4984434       -121.1728
2.256                  0.4914996       -122.2737
2.26                   0.4845504       -123.3924
2.264                  0.4775996       -124.5295
2.268                  0.4706506       -125.6858
2.272                  0.4637076       -126.8618
2.276                  0.4567746       -128.0584
2.28                   0.4498557       -129.2762
2.284                  0.4429552        -130.516
2.288                  0.4360779       -131.7787
2.292                  0.4292283       -133.0651
2.296                  0.4224112        -134.376
2.3                    0.4156318       -135.7124
2.304                  0.4088953       -137.0753
2.308                  0.4022073       -138.4655
2.312                  0.3955733        -139.884
2.316                  0.3889991        -141.332
2.32                    0.382491       -142.8103
2.324                  0.3760552         -144.32
2.328                  0.3696983       -145.8622
2.332                  0.3634271        -147.438
2.336                  0.3572485       -149.0483
2.34                   0.3511699       -150.6942
2.344                  0.3451986       -152.3768
2.348                  0.3393426       -154.0969
2.352                  0.3336096       -155.8555