! TOUCHSTONE file generated by CST MICROWAVE STUDIO
! Date and time: Sat May 14 12:00:58 2022
! Project name: AppElm_antenne_dipole_Alumina.cst
! Parameters = {L=33; e=0.035; f=2.45e+09; h=1.6; i=0.8; l1=2; lambda=122.449; ls=28.5; wl=1.7; ws=80}
! Header version: 2018
! Port assignment regex: !\s*Touchstone port\s*([0-9]+)\s*=\s*(CST MWS port|CST DS port)\s*([0-9]+|Zmin|Zmax)\s*\(\"(.*)\"\)(\s*mode\s*([0-9]+))?.*
! Touchstone port assignment:
! Touchstone port 1 = CST MWS port 1 ("")
# GHz S MA R 50
0                              1              -0
0.004                  0.9999987     -0.06965099
0.008                  0.9999946      -0.1392947
0.012                  0.9999875      -0.2089238
0.016                  0.9999779      -0.2785311
0.02                   0.9999657      -0.3481094
0.024                  0.9999507      -0.4176515
0.028                   0.999933      -0.4871507
0.032                  0.9999128      -0.5565999
0.036                    0.99989      -0.6259924
0.04                   0.9998648      -0.6953215
0.044                  0.9998371      -0.7645811
0.048                   0.999807      -0.8337648
0.052                  0.9997748      -0.9028665
0.056                  0.9997404      -0.9718807
0.06                   0.9997038       -1.040802
0.064                  0.9996654       -1.109625
0.068                  0.9996248       -1.178344
0.072                  0.9995826       -1.246956
0.076                  0.9995386       -1.315455
0.08                   0.9994932       -1.383838
0.084                  0.9994463       -1.452101
0.088                   0.999398        -1.52024
0.092                  0.9993484       -1.588253
0.096                  0.9992978       -1.656137
0.1                    0.9992464        -1.72389
0.104                   0.999194       -1.791509
0.108                  0.9991411       -1.858994
0.112                  0.9990874       -1.926344
0.116                  0.9990336       -1.993557
0.12                   0.9989793       -2.060633
0.124                  0.9989249       -2.127573
0.128                  0.9988706       -2.194377
0.132                  0.9988164       -2.261045
0.136                  0.9987626       -2.327581
0.14                   0.9987091       -2.393985
0.144                  0.9986563       -2.460258
0.148                  0.9986041       -2.526406
0.152                  0.9985529       -2.592429
0.156                  0.9985025       -2.658332
0.16                   0.9984534       -2.724118
0.164                  0.9984055       -2.789791
0.168                   0.998359       -2.855357
0.172                   0.998314       -2.920819
0.176                  0.9982704       -2.986184
0.18                   0.9982288       -3.051457
0.184                   0.998189       -3.116644
0.188                   0.998151       -3.181751
0.192                  0.9981152       -3.246784
0.196                  0.9980815       -3.311752
0.2                    0.9980499        -3.37666
0.204                  0.9980207       -3.441517
0.208                   0.997994       -3.506329
0.212                  0.9979696       -3.571106
0.216                  0.9979478       -3.635855
0.22                   0.9979284       -3.700583
0.224                  0.9979118       -3.765301
0.228                   0.997898       -3.830016
0.232                  0.9978868       -3.894737
0.236                  0.9978782       -3.959474
0.24                   0.9978726       -4.024234
0.244                  0.9978697       -4.089027
0.248                  0.9978696       -4.153862
0.252                  0.9978723       -4.218749
0.256                  0.9978778       -4.283695
0.26                   0.9978861       -4.348711
0.264                  0.9978971       -4.413805
0.268                  0.9979109       -4.478987
0.272                  0.9979273       -4.544264
0.276                  0.9979465       -4.609647
0.28                   0.9979682       -4.675143
0.284                  0.9979925       -4.740761
0.288                  0.9980194        -4.80651
0.292                  0.9980485       -4.872398
0.296                  0.9980801       -4.938432
0.3                     0.998114        -5.00462
0.304                  0.9981498       -5.070972
0.308                  0.9981881       -5.137491
0.312                  0.9982281       -5.204187
0.316                    0.99827       -5.271066
0.32                   0.9983137       -5.338134
0.324                  0.9983591       -5.405398
0.328                  0.9984061       -5.472861
0.332                  0.9984543       -5.540533
0.336                  0.9985039       -5.608415
0.34                   0.9985546       -5.676514
0.344                  0.9986064       -5.744832
0.348                  0.9986591       -5.813375
0.352                  0.9987126       -5.882145
0.356                  0.9987666       -5.951146
0.36                   0.9988211       -6.020381
0.364                  0.9988758       -6.089852
0.368                  0.9989308        -6.15956
0.372                  0.9989856       -6.229508
0.376                  0.9990404       -6.299695
0.38                   0.9990951       -6.370122
0.384                  0.9991491       -6.440791
0.388                  0.9992027       -6.511699
0.392                  0.9992555       -6.582847
0.396                  0.9993075       -6.654235
0.4                    0.9993583        -6.72586
0.404                  0.9994082       -6.797718
0.408                  0.9994567       -6.869811
0.412                  0.9995037       -6.942133
0.416                  0.9995494       -7.014681
0.42                   0.9995931       -7.087454
0.424                  0.9996353       -7.160447
0.428                  0.9996755       -7.233655
0.432                  0.9997136       -7.307073
0.436                  0.9997495       -7.380698
0.44                   0.9997833       -7.454524
0.444                  0.9998146       -7.528546
0.448                  0.9998435       -7.602757
0.452                    0.99987       -7.677152
0.456                  0.9998936       -7.751725
0.46                   0.9999146        -7.82647
0.464                  0.9999331       -7.901376
0.468                  0.9999485       -7.976443
0.472                  0.9999612        -8.05166
0.476                  0.9999709       -8.127022
0.48                   0.9999777       -8.202518
0.484                  0.9999814       -8.278143
0.488                  0.9999821        -8.35389
0.492                  0.9999798        -8.42975
0.496                  0.9999745       -8.505717
0.5                    0.9999659       -8.581784
0.504                  0.9999545       -8.657938
0.508                  0.9999401       -8.734178
0.512                  0.9999225       -8.810493
0.516                  0.9999021       -8.886877
0.52                   0.9998786       -8.963323
0.524                  0.9998523       -9.039822
0.528                  0.9998231       -9.116368
0.532                  0.9997911       -9.192952
0.536                  0.9997562       -9.269571
0.54                   0.9997189       -9.346214
0.544                  0.9996789        -9.42288
0.548                  0.9996364       -9.499558
0.552                  0.9995914       -9.576245
0.556                  0.9995442       -9.652932
0.56                   0.9994948       -9.729617
0.564                  0.9994432       -9.806294
0.568                  0.9993898       -9.882958
0.572                  0.9993344       -9.959605
0.576                  0.9992773       -10.03623
0.58                   0.9992186       -10.11283
0.584                  0.9991584        -10.1894
0.588                  0.9990969       -10.26595
0.592                  0.9990341       -10.34246
0.596                  0.9989702       -10.41893
0.6                    0.9989056       -10.49537
0.604                  0.9988401       -10.57177
0.608                  0.9987742       -10.64813
0.612                  0.9987078       -10.72446
0.616                  0.9986409       -10.80074
0.62                   0.9985741       -10.87699
0.624                  0.9985072        -10.9532
0.628                  0.9984404       -11.02938
0.632                  0.9983741       -11.10552
0.636                  0.9983083       -11.18164
0.64                    0.998243       -11.25772
0.644                  0.9981786       -11.33379
0.648                  0.9981152       -11.40983
0.652                  0.9980528       -11.48586
0.656                  0.9979917       -11.56188
0.66                    0.997932        -11.6379
0.664                  0.9978737       -11.71392
0.668                  0.9978173       -11.78994
0.672                  0.9977625       -11.86598
0.676                  0.9977098       -11.94204
0.68                   0.9976589       -12.01813
0.684                  0.9976104       -12.09426
0.688                   0.997564       -12.17043
0.692                    0.99752       -12.24666
0.696                  0.9974785       -12.32295
0.7                    0.9974396       -12.39931
0.704                  0.9974033       -12.47575
0.708                  0.9973698       -12.55228
0.712                  0.9973391       -12.62892
0.716                  0.9973111       -12.70567
0.72                   0.9972861       -12.78254
0.724                  0.9972642       -12.85954
0.728                  0.9972452       -12.93668
0.732                  0.9972293       -13.01398
0.736                  0.9972164       -13.09144
0.74                   0.9972065       -13.16909
0.744                  0.9971998       -13.24691
0.748                  0.9971961       -13.32494
0.752                  0.9971955       -13.40318
0.756                  0.9971979       -13.48165
0.76                   0.9972033       -13.56034
0.764                  0.9972118       -13.63928
0.768                  0.9972231       -13.71848
0.772                  0.9972373       -13.79794
0.776                  0.9972544       -13.87768
0.78                   0.9972742       -13.95772
0.784                  0.9972966       -14.03805
0.788                  0.9973216       -14.11869
0.792                   0.997349       -14.19965
0.796                   0.997379       -14.28094
0.8                    0.9974111       -14.36257
0.804                  0.9974455       -14.44455
0.808                  0.9974817       -14.52689
0.812                  0.9975199       -14.60959
0.816                    0.99756       -14.69267
0.82                   0.9976015       -14.77614
0.824                  0.9976446       -14.85999
0.828                  0.9976889       -14.94425
0.832                  0.9977345       -15.02891
0.836                  0.9977811       -15.11398
0.84                   0.9978283       -15.19947
0.844                  0.9978763       -15.28538
0.848                  0.9979248       -15.37172
0.852                  0.9979735        -15.4585
0.856                  0.9980226       -15.54571
0.86                   0.9980714       -15.63336
0.864                  0.9981201       -15.72146
0.868                  0.9981682          -15.81
0.872                  0.9982158       -15.89899
0.876                  0.9982626       -15.98843
0.88                   0.9983084       -16.07833
0.884                   0.998353       -16.16868
0.888                  0.9983962       -16.25947
0.892                   0.998438       -16.35072
0.896                   0.998478       -16.44243
0.9                    0.9985161       -16.53458
0.904                  0.9985522       -16.62717
0.908                   0.998586       -16.72022
0.912                  0.9986175       -16.81371
0.916                  0.9986464       -16.90764
0.92                   0.9986724         -17.002
0.924                  0.9986957       -17.09679
0.928                  0.9987159       -17.19202
0.932                  0.9987329       -17.28766
0.936                  0.9987466       -17.38373
0.94                   0.9987569        -17.4802
0.944                  0.9987637       -17.57708
0.948                  0.9987667       -17.67437
0.952                  0.9987659       -17.77204
0.956                  0.9987612        -17.8701
0.96                   0.9987526       -17.96854
0.964                  0.9987399       -18.06736
0.968                  0.9987231       -18.16653
0.972                  0.9987021       -18.26607
0.976                  0.9986768       -18.36595
0.98                   0.9986471       -18.46617
0.984                  0.9986132       -18.56673
0.988                  0.9985748       -18.66761
0.992                  0.9985321       -18.76881
0.996                  0.9984848       -18.87031
1                      0.9984331       -18.97212
1.004                  0.9983772       -19.07422
1.008                  0.9983168       -19.17662
1.012                  0.9982521       -19.27926
1.016                  0.9981829       -19.38221
1.02                   0.9981096       -19.48537
1.024                  0.9980319       -19.58881
1.028                  0.9979501       -19.69252
1.032                  0.9978643       -19.79642
1.036                  0.9977743       -19.90057
1.04                   0.9976806       -20.00496
1.044                  0.9975829       -20.10957
1.048                  0.9974817       -20.21435
1.052                  0.9973768       -20.31937
1.056                  0.9972684       -20.42461
1.06                   0.9971568       -20.53001
1.064                  0.9970419       -20.63563
1.068                   0.996924       -20.74139
1.072                  0.9968032       -20.84739
1.076                  0.9966796       -20.95356
1.08                   0.9965535       -21.05992
1.084                   0.996425       -21.16642
1.088                  0.9962943       -21.27311
1.092                  0.9961616       -21.37998
1.096                   0.996027       -21.48703
1.1                    0.9958907       -21.59423
1.104                  0.9957529       -21.70166
1.108                   0.995614       -21.80925
1.112                  0.9954737         -21.917
1.116                  0.9953327       -22.02495
1.12                    0.995191       -22.13305
1.124                  0.9950488       -22.24141
1.128                  0.9949062       -22.34992
1.132                  0.9947635       -22.45865
1.136                  0.9946209       -22.56758
1.14                   0.9944786       -22.67674
1.144                  0.9943367       -22.78611
1.148                  0.9941954       -22.89572
1.152                  0.9940551       -23.00557
1.156                  0.9939157       -23.11567
1.16                   0.9937775       -23.22604
1.164                  0.9936407       -23.33667
1.168                  0.9935054       -23.44759
1.172                  0.9933718       -23.55881
1.176                    0.99324       -23.67033
1.18                   0.9931101       -23.78218
1.184                  0.9929825       -23.89436
1.188                   0.992857       -24.00689
1.192                  0.9927338       -24.11979
1.196                  0.9926131       -24.23307
1.2                    0.9924951       -24.34674
1.204                  0.9923795       -24.46083
1.208                  0.9922669       -24.57535
1.212                  0.9921568       -24.69032
1.216                  0.9920499       -24.80575
1.22                   0.9919457       -24.92166
1.224                  0.9918445       -25.03807
1.228                  0.9917463         -25.155
1.232                  0.9916511       -25.27247
1.236                  0.9915589        -25.3905
1.24                   0.9914696        -25.5091
1.244                  0.9913834        -25.6283
1.248                  0.9912999       -25.74811
1.252                  0.9912194       -25.86856
1.256                  0.9911418       -25.98966
1.26                   0.9910667       -26.11143
1.264                  0.9909944        -26.2339
1.268                  0.9909247       -26.35708
1.272                  0.9908575       -26.48098
1.276                  0.9907925       -26.60565
1.28                   0.9907296       -26.73108
1.284                  0.9906688        -26.8573
1.288                  0.9906098       -26.98433
1.292                  0.9905525       -27.11218
1.296                  0.9904969       -27.24088
1.3                    0.9904425       -27.37044
1.304                  0.9903891       -27.50088
1.308                  0.9903368       -27.63221
1.312                   0.990285       -27.76446
1.316                  0.9902337       -27.89764
1.32                   0.9901827       -28.03176
1.324                  0.9901315       -28.16685
1.328                    0.99008       -28.30291
1.332                  0.9900279       -28.43996
1.336                  0.9899749       -28.57801
1.34                   0.9899209       -28.71708
1.344                  0.9898654       -28.85718
1.348                  0.9898081       -28.99832
1.352                  0.9897488       -29.14051
1.356                  0.9896871       -29.28376
1.36                   0.9896227        -29.4281
1.364                  0.9895555        -29.5735
1.368                  0.9894849       -29.72001
1.372                  0.9894106       -29.86761
1.376                  0.9893325       -30.01632
1.38                   0.9892502       -30.16614
1.384                  0.9891632       -30.31709
1.388                  0.9890714       -30.46916
1.392                  0.9889744       -30.62236
1.396                  0.9888719        -30.7767
1.4                    0.9887635       -30.93217
1.404                  0.9886489       -31.08879
1.408                  0.9885281       -31.24654
1.412                  0.9884002       -31.40545
1.416                  0.9882655        -31.5655
1.42                   0.9881233        -31.7267
1.424                  0.9879735       -31.88904
1.428                  0.9878159       -32.05253
1.432                    0.98765       -32.21716
1.436                  0.9874756       -32.38295
1.44                   0.9872927       -32.54987
1.444                  0.9871006       -32.71792
1.448                  0.9868995       -32.88713
1.452                  0.9866888       -33.05745
1.456                  0.9864685       -33.22891
1.46                   0.9862385        -33.4015
1.464                  0.9859982       -33.57522
1.468                  0.9857479       -33.75004
1.472                  0.9854871       -33.92598
1.476                  0.9852156       -34.10303
1.48                   0.9849336       -34.28118
1.484                  0.9846406       -34.46043
1.488                  0.9843367       -34.64077
1.492                  0.9840218        -34.8222
1.496                  0.9836955       -35.00473
1.5                     0.983358       -35.18832
1.504                  0.9830093       -35.37299
1.508                  0.9826491       -35.55873
1.512                  0.9822774       -35.74553
1.516                  0.9818943        -35.9334
1.52                   0.9814996       -36.12232
1.524                  0.9810935        -36.3123
1.528                   0.980676       -36.50333
1.532                  0.9802468       -36.69542
1.536                  0.9798063       -36.88853
1.54                   0.9793542       -37.08271
1.544                   0.978891       -37.27793
1.548                  0.9784164       -37.47419
1.552                  0.9779306        -37.6715
1.556                  0.9774337       -37.86985
1.56                   0.9769258       -38.06925
1.564                  0.9764069       -38.26971
1.568                  0.9758774       -38.47121
1.572                  0.9753371       -38.67377
1.576                  0.9747863        -38.8774
1.58                   0.9742251       -39.08211
1.584                  0.9736537       -39.28789
1.588                  0.9730721       -39.49476
1.592                  0.9724805       -39.70272
1.596                  0.9718793       -39.91178
1.6                    0.9712684       -40.12198
1.604                  0.9706481        -40.3333
1.608                  0.9700185       -40.54576
1.612                  0.9693798       -40.75938
1.616                  0.9687323       -40.97419
1.62                   0.9680759       -41.19019
1.624                  0.9674109        -41.4074
1.628                  0.9667374       -41.62586
1.632                  0.9660559       -41.84556
1.636                  0.9653659       -42.06655
1.64                   0.9646682       -42.28885
1.644                  0.9639627       -42.51247
1.648                  0.9632496       -42.73745
1.652                   0.962529       -42.96381
1.656                  0.9618007        -43.1916
1.66                   0.9610653       -43.42083
1.664                  0.9603225       -43.65155
1.668                  0.9595727       -43.88378
1.672                  0.9588159       -44.11755
1.676                  0.9580521       -44.35291
1.68                   0.9572812        -44.5899
1.684                  0.9565034       -44.82856
1.688                  0.9557188       -45.06891
1.692                  0.9549271       -45.31102
1.696                  0.9541286       -45.55491
1.7                     0.953323       -45.80063
1.704                  0.9525103       -46.04824
1.708                  0.9516905       -46.29776
1.712                  0.9508632       -46.54927
1.716                  0.9500286        -46.8028
1.72                   0.9491865        -47.0584
1.724                  0.9483365       -47.31612
1.728                  0.9474785       -47.57601
1.732                  0.9466125       -47.83814
1.736                  0.9457378       -48.10254
1.74                   0.9448543       -48.36927
1.744                  0.9439619        -48.6384
1.748                  0.9430598       -48.90998
1.752                  0.9421482       -49.18404
1.756                  0.9412261       -49.46068
1.76                   0.9402937       -49.73992
1.764                  0.9393499       -50.02184
1.768                  0.9383946       -50.30649
1.772                  0.9374273       -50.59394
1.776                  0.9364472       -50.88423
1.78                   0.9354541       -51.17743
1.784                  0.9344472        -51.4736
1.788                  0.9334257        -51.7728
1.792                  0.9323892       -52.07509
1.796                   0.931337       -52.38051
1.8                    0.9302683       -52.68915
1.804                  0.9291823       -53.00106
1.808                  0.9280783        -53.3163
1.812                  0.9269556       -53.63491
1.816                  0.9258133       -53.95698
1.82                   0.9246505       -54.28254
1.824                  0.9234664       -54.61167
1.828                  0.9222601       -54.94443
1.832                  0.9210307       -55.28085
1.836                  0.9197773       -55.62101
1.84                   0.9184988       -55.96496
1.844                  0.9171945       -56.31276
1.848                  0.9158631       -56.66446
1.852                  0.9145036       -57.02013
1.856                  0.9131152       -57.37981
1.86                   0.9116967       -57.74356
1.864                  0.9102471       -58.11142
1.868                   0.908765       -58.48347
1.872                  0.9072498       -58.85974
1.876                  0.9057001       -59.24027
1.88                   0.9041149       -59.62515
1.884                  0.9024929       -60.01439
1.888                  0.9008332       -60.40806
1.892                  0.8991345        -60.8062
1.896                  0.8973958       -61.20887
1.9                    0.8956158        -61.6161
1.904                  0.8937932       -62.02796
1.908                  0.8919272       -62.44447
1.912                  0.8900166       -62.86567
1.916                    0.88806       -63.29163
1.92                   0.8860563       -63.72239
1.924                  0.8840046       -64.15797
1.928                  0.8819035       -64.59844
1.932                  0.8797521       -65.04381
1.936                   0.877549       -65.49413
1.94                   0.8752932       -65.94947
1.944                  0.8729838       -66.40983
1.948                  0.8706195       -66.87528
1.952                   0.868199       -67.34584
1.956                  0.8657219       -67.82155
1.96                   0.8631865       -68.30245
1.964                   0.860592       -68.78859
1.968                  0.8579375          -69.28
1.972                   0.855222       -69.77671
1.976                  0.8524442       -70.27877
1.98                   0.8496037        -70.7862
1.984                  0.8466993       -71.29907
1.988                  0.8437301       -71.81739
1.992                  0.8406953       -72.34119
1.996                  0.8375941       -72.87053
2                      0.8344255       -73.40546
2.004                  0.8311891       -73.94599
2.008                  0.8278839       -74.49217
2.012                  0.8245092       -75.04403
2.016                  0.8210645       -75.60165
2.02                    0.817549       -76.16503
2.024                  0.8139622       -76.73423
2.028                  0.8103036        -77.3093
2.032                  0.8065725       -77.89027
2.036                  0.8027687       -78.47719
2.04                   0.7988915       -79.07013
2.044                  0.7949407        -79.6691
2.048                  0.7909161       -80.27419
2.052                  0.7868169       -80.88543
2.056                  0.7826433       -81.50288
2.06                   0.7783951       -82.12661
2.064                  0.7740718       -82.75666
2.068                  0.7696736       -83.39309
2.072                  0.7652003       -84.03599
2.076                  0.7606521       -84.68539
2.08                   0.7560287       -85.34142
2.084                  0.7513305       -86.00408
2.088                  0.7465575        -86.6735
2.092                    0.74171       -87.34973
2.096                  0.7367881       -88.03287
2.1                    0.7317923       -88.72299
2.104                   0.726723       -89.42022
2.108                  0.7215804        -90.1246
2.112                  0.7163651       -90.83628
2.116                  0.7110777       -91.55536
2.12                   0.7057188       -92.28192
2.124                   0.700289       -93.01609
2.128                  0.6947891       -93.75802
2.132                  0.6892199       -94.50781
2.136                  0.6835822       -95.26559
2.14                   0.6778769       -96.03151
2.144                  0.6721051       -96.80574
2.148                  0.6662677       -97.58841
2.152                  0.6603658        -98.3797
2.156                  0.6544009       -99.17978
2.16                   0.6483737       -99.98882
2.164                  0.6422861        -100.807
2.168                  0.6361391       -101.6346
2.172                  0.6299344       -102.4717
2.176                  0.6236733       -103.3186
2.18                   0.6173576       -104.1756
2.184                   0.610989       -105.0428
2.188                  0.6045692       -105.9206
2.192                     0.5981       -106.8091
2.196                  0.5915834       -107.7088
2.2                    0.5850212       -108.6198
2.204                  0.5784159       -109.5425
2.208                  0.5717694       -110.4773
2.212                  0.5650841       -111.4244
2.216                  0.5583622       -112.3843
2.22                   0.5516062       -113.3573
2.224                  0.5448187       -114.3438
2.228                  0.5380023       -115.3442
2.232                  0.5311598       -116.3591
2.236                  0.5242941       -117.3888
2.24                   0.5174081       -118.4338
2.244                  0.5105047       -119.4947
2.248                  0.5035875       -120.5721
2.252                  0.4966595       -121.6663
2.256                  0.4897243       -122.7781
2.26                   0.4827853        -123.908
2.264                  0.4758463       -125.0568
2.268                  0.4689112        -126.225
2.272                  0.4619839       -127.4134
2.276                  0.4550686       -128.6227
2.28                   0.4481694       -129.8536
2.284                  0.4412911       -131.1071
2.288                  0.4344381       -132.3838
2.292                  0.4276153       -133.6846
2.296                  0.4208277       -135.0105
2.3                    0.4140804       -136.3623
2.304                  0.4073788        -137.741
2.308                  0.4007286       -139.1475
2.312                  0.3941353       -140.5828
2.316                  0.3876052        -142.048
2.32                   0.3811445        -143.544
2.324                  0.3747596       -145.0719
2.328                  0.3684572       -146.6328
2.332                  0.3622442       -148.2275
2.336                  0.3561277       -149.8573
2.34                   0.3501153        -151.523
2.344                  0.3442144       -153.2257
2.348                  0.3384331       -154.9662
2.352                  0.3327792       -156.7454