! TOUCHSTONE file generated by CST MICROWAVE STUDIO
! Date and time: Sat May 14 12:01:02 2022
! Project name: AppElm_antenne_dipole_Alumina.cst
! Parameters = {L=33; e=0.035; f=2.45e+09; h=1.6; i=0.8; l1=2; lambda=122.449; ls=34.5; wl=1.7; ws=80}
! Header version: 2018
! Port assignment regex: !\s*Touchstone port\s*([0-9]+)\s*=\s*(CST MWS port|CST DS port)\s*([0-9]+|Zmin|Zmax)\s*\(\"(.*)\"\)(\s*mode\s*([0-9]+))?.*
! Touchstone port assignment:
! Touchstone port 1 = CST MWS port 1 ("")
# GHz S MA R 50
0                              1              -0
0.004                  0.9999986     -0.06980904
0.008                  0.9999941      -0.1396105
0.012                  0.9999869      -0.2093966
0.016                  0.9999769        -0.27916
0.02                   0.9999641      -0.3488929
0.024                  0.9999485      -0.4185882
0.028                    0.99993      -0.4882383
0.032                   0.999909      -0.5578362
0.036                  0.9998852      -0.6273748
0.04                    0.999859      -0.6968471
0.044                    0.99983      -0.7662465
0.048                  0.9997988      -0.8355666
0.052                  0.9997651       -0.904801
0.056                  0.9997292      -0.9739437
0.06                   0.9996911       -1.042989
0.064                  0.9996509       -1.111931
0.068                  0.9996088       -1.180765
0.072                  0.9995648       -1.249486
0.076                  0.9995189        -1.31809
0.08                   0.9994715       -1.386571
0.084                  0.9994225       -1.454927
0.088                  0.9993722       -1.523154
0.092                  0.9993205       -1.591248
0.096                  0.9992678       -1.659207
0.1                    0.9992141       -1.727028
0.104                  0.9991595        -1.79471
0.108                  0.9991041        -1.86225
0.112                  0.9990482       -1.929649
0.116                  0.9989919       -1.996904
0.12                   0.9989354       -2.064016
0.124                  0.9988787       -2.130984
0.128                  0.9988221       -2.197811
0.132                  0.9987656       -2.264495
0.136                  0.9987094       -2.331039
0.14                   0.9986537       -2.397444
0.144                  0.9985986       -2.463713
0.148                  0.9985441       -2.529849
0.152                  0.9984907       -2.595854
0.156                  0.9984382       -2.661733
0.16                   0.9983869       -2.727488
0.164                  0.9983368       -2.793125
0.168                  0.9982883       -2.858648
0.172                  0.9982413       -2.924062
0.176                   0.998196       -2.989373
0.18                   0.9981524       -3.054586
0.184                  0.9981108       -3.119709
0.188                  0.9980712       -3.184746
0.192                  0.9980337       -3.249705
0.196                  0.9979986       -3.314594
0.2                    0.9979656       -3.379419
0.204                  0.9979352       -3.444188
0.208                  0.9979071        -3.50891
0.212                  0.9978817       -3.573593
0.216                  0.9978588       -3.638245
0.22                   0.9978387       -3.702874
0.224                  0.9978213       -3.767489
0.228                  0.9978067         -3.8321
0.232                   0.997795       -3.896715
0.236                   0.997786       -3.961344
0.24                   0.9977802       -4.025995
0.244                   0.997777        -4.09068
0.248                  0.9977768       -4.155405
0.252                  0.9977796       -4.220182
0.256                  0.9977853       -4.285018
0.26                   0.9977939       -4.349925
0.264                  0.9978053       -4.414912
0.268                  0.9978197       -4.479988
0.272                  0.9978368       -4.545161
0.276                  0.9978566       -4.610442
0.28                   0.9978793       -4.675837
0.284                  0.9979046       -4.741359
0.288                  0.9979325       -4.807013
0.292                  0.9979628       -4.872811
0.296                  0.9979957       -4.938758
0.3                    0.9980309       -5.004864
0.304                  0.9980684       -5.071136
0.308                  0.9981082       -5.137581
0.312                    0.99815       -5.204208
0.316                  0.9981937       -5.271023
0.32                   0.9982393       -5.338032
0.324                  0.9982865       -5.405243
0.328                  0.9983354        -5.47266
0.332                  0.9983859       -5.540289
0.336                  0.9984376       -5.608136
0.34                   0.9984905       -5.676206
0.344                  0.9985445       -5.744502
0.348                  0.9985995       -5.813029
0.352                  0.9986552       -5.881791
0.356                  0.9987116       -5.950791
0.36                   0.9987684        -6.02003
0.364                  0.9988256       -6.089513
0.368                  0.9988829        -6.15924
0.372                  0.9989402       -6.229214
0.376                  0.9989975       -6.299435
0.38                   0.9990544       -6.369903
0.384                   0.999111        -6.44062
0.388                  0.9991669       -6.511584
0.392                  0.9992222       -6.582794
0.396                  0.9992765        -6.65425
0.4                    0.9993298       -6.725951
0.404                  0.9993818       -6.797893
0.408                  0.9994325       -6.870074
0.412                  0.9994818       -6.942493
0.416                  0.9995295       -7.015145
0.42                   0.9995754       -7.088026
0.424                  0.9996195       -7.161134
0.428                  0.9996615       -7.234463
0.432                  0.9997015       -7.308007
0.436                  0.9997392       -7.381764
0.44                   0.9997745       -7.455727
0.444                  0.9998076       -7.529891
0.448                  0.9998379       -7.604249
0.452                  0.9998656       -7.678795
0.456                  0.9998908       -7.753524
0.46                   0.9999131       -7.828427
0.464                  0.9999323       -7.903498
0.468                  0.9999488       -7.978729
0.472                  0.9999623       -8.054116
0.476                  0.9999726       -8.129647
0.48                     0.99998       -8.205317
0.484                  0.9999843       -8.281116
0.488                  0.9999853       -8.357041
0.492                  0.9999833       -8.433079
0.496                  0.9999779       -8.509224
0.5                    0.9999697       -8.585469
0.504                   0.999958       -8.661804
0.508                  0.9999431       -8.738223
0.512                  0.9999252       -8.814716
0.516                  0.9999042       -8.891278
0.52                   0.9998801       -8.967898
0.524                   0.999853       -9.044572
0.528                   0.999823       -9.121289
0.532                  0.9997898       -9.198045
0.536                  0.9997539        -9.27483
0.54                   0.9997152       -9.351639
0.544                  0.9996739       -9.428463
0.548                    0.99963       -9.505297
0.552                  0.9995836       -9.582137
0.556                  0.9995346       -9.658973
0.56                   0.9994834       -9.735802
0.564                  0.9994301       -9.812617
0.568                  0.9993745       -9.889416
0.572                  0.9993171       -9.966191
0.576                   0.999258       -10.04294
0.58                   0.9991972       -10.11966
0.584                  0.9991346       -10.19634
0.588                  0.9990708       -10.27299
0.592                  0.9990057        -10.3496
0.596                  0.9989396       -10.42616
0.6                    0.9988725       -10.50269
0.604                  0.9988046       -10.57917
0.608                   0.998736        -10.6556
0.612                   0.998667       -10.73199
0.616                  0.9985977       -10.80833
0.62                   0.9985283       -10.88463
0.624                  0.9984588       -10.96088
0.628                  0.9983896       -11.03709
0.632                  0.9983206       -11.11326
0.636                  0.9982522        -11.1894
0.64                   0.9981845        -11.2655
0.644                  0.9981176       -11.34157
0.648                  0.9980517       -11.41762
0.652                   0.997987       -11.49364
0.656                  0.9979235       -11.56965
0.66                   0.9978614       -11.64564
0.664                  0.9978009       -11.72163
0.668                  0.9977422       -11.79762
0.672                  0.9976853       -11.87363
0.676                  0.9976305       -11.94964
0.68                   0.9975778       -12.02568
0.684                  0.9975273       -12.10175
0.688                  0.9974793       -12.17786
0.692                  0.9974336       -12.25402
0.696                  0.9973906       -12.33024
0.7                    0.9973501       -12.40653
0.704                  0.9973125       -12.48289
0.708                  0.9972778       -12.55934
0.712                  0.9972458       -12.63589
0.716                  0.9972172       -12.71254
0.72                   0.9971912       -12.78932
0.724                  0.9971685       -12.86622
0.728                  0.9971489       -12.94327
0.732                  0.9971324       -13.02047
0.736                  0.9971193       -13.09784
0.74                   0.9971093       -13.17538
0.744                  0.9971024       -13.25311
0.748                  0.9970988       -13.33104
0.752                  0.9970984       -13.40918
0.756                  0.9971012       -13.48755
0.76                   0.9971072       -13.56614
0.764                  0.9971162       -13.64499
0.768                  0.9971284       -13.72409
0.772                  0.9971435       -13.80347
0.776                  0.9971616       -13.88312
0.78                   0.9971825       -13.96307
0.784                  0.9972064       -14.04332
0.788                  0.9972328       -14.12388
0.792                  0.9972618       -14.20477
0.796                  0.9972933         -14.286
0.8                    0.9973273       -14.36756
0.804                  0.9973635       -14.44949
0.808                  0.9974018       -14.53178
0.812                  0.9974422       -14.61444
0.816                  0.9974844       -14.69748
0.82                   0.9975284       -14.78092
0.824                  0.9975737       -14.86475
0.828                  0.9976207       -14.94899
0.832                  0.9976689       -15.03364
0.836                  0.9977179       -15.11871
0.84                    0.997768       -15.20421
0.844                  0.9978188       -15.29014
0.848                  0.9978701        -15.3765
0.852                  0.9979217       -15.46331
0.856                  0.9979735       -15.55057
0.86                   0.9980253       -15.63827
0.864                   0.998077       -15.72642
0.868                   0.998128       -15.81504
0.872                  0.9981787       -15.90411
0.876                  0.9982284       -15.99364
0.88                   0.9982772       -16.08363
0.884                  0.9983248       -16.17408
0.888                   0.998371       -16.26499
0.892                  0.9984157       -16.35637
0.896                  0.9984586       -16.44821
0.9                    0.9984996        -16.5405
0.904                  0.9985385       -16.63325
0.908                   0.998575       -16.72645
0.912                  0.9986091       -16.82011
0.916                  0.9986406       -16.91422
0.92                   0.9986692       -17.00876
0.924                  0.9986949       -17.10375
0.928                  0.9987175       -17.19918
0.932                  0.9987368       -17.29504
0.936                  0.9987528       -17.39131
0.94                   0.9987651       -17.48802
0.944                  0.9987736       -17.58513
0.948                  0.9987786       -17.68264
0.952                  0.9987795       -17.78057
0.956                  0.9987764       -17.87888
0.96                   0.9987692       -17.97757
0.964                  0.9987579       -18.07664
0.968                  0.9987423       -18.17609
0.972                  0.9987222       -18.27589
0.976                  0.9986979       -18.37605
0.98                   0.9986689       -18.47655
0.984                  0.9986356       -18.57739
0.988                  0.9985976       -18.67855
0.992                  0.9985551       -18.78003
0.996                  0.9985081       -18.88183
1                      0.9984564       -18.98392
1.004                  0.9984001       -19.08631
1.008                  0.9983395         -19.189
1.012                  0.9982742       -19.29194
1.016                  0.9982045       -19.39513
1.02                   0.9981302       -19.49862
1.024                  0.9980516       -19.60236
1.028                  0.9979687       -19.70634
1.032                  0.9978815       -19.81054
1.036                  0.9977902       -19.91499
1.04                   0.9976949       -20.01965
1.044                  0.9975956       -20.12451
1.048                  0.9974925       -20.22962
1.052                  0.9973856       -20.33491
1.056                  0.9972751       -20.44037
1.06                   0.9971612       -20.54604
1.064                  0.9970439       -20.65191
1.068                  0.9969235       -20.75797
1.072                  0.9968002        -20.8642
1.076                   0.996674       -20.97058
1.08                   0.9965451       -21.07719
1.084                  0.9964137       -21.18393
1.088                  0.9962801       -21.29084
1.092                  0.9961443       -21.39793
1.096                  0.9960066       -21.50519
1.1                    0.9958671       -21.61262
1.104                  0.9957261       -21.72018
1.108                  0.9955839       -21.82796
1.112                  0.9954404       -21.93591
1.116                   0.995296       -22.04404
1.12                    0.995151       -22.15232
1.124                  0.9950053        -22.2608
1.128                  0.9948593       -22.36947
1.132                  0.9947132       -22.47834
1.136                  0.9945672       -22.58741
1.14                   0.9944216       -22.69668
1.144                  0.9942764       -22.80618
1.148                  0.9941318        -22.9159
1.152                  0.9939883       -23.02585
1.156                  0.9938456       -23.13604
1.16                   0.9937043       -23.24649
1.164                  0.9935645       -23.35721
1.168                  0.9934261        -23.4682
1.172                  0.9932896       -23.57948
1.176                  0.9931549       -23.69107
1.18                   0.9930223       -23.80296
1.184                  0.9928919       -23.91519
1.188                  0.9927639       -24.02777
1.192                  0.9926384        -24.1407
1.196                  0.9925154       -24.25402
1.2                    0.9923951       -24.36772
1.204                  0.9922776       -24.48184
1.208                   0.992163       -24.59638
1.212                  0.9920514       -24.71136
1.216                  0.9919428       -24.82681
1.22                   0.9918371       -24.94273
1.224                  0.9917348       -25.05916
1.228                  0.9916354        -25.1761
1.232                  0.9915392       -25.29358
1.236                  0.9914463       -25.41162
1.24                   0.9913564       -25.53023
1.244                  0.9912696       -25.64945
1.248                   0.991186       -25.76927
1.252                  0.9911052       -25.88974
1.256                  0.9910277       -26.01086
1.26                    0.990953       -26.13266
1.264                  0.9908811       -26.25515
1.268                  0.9908119       -26.37836
1.272                  0.9907452       -26.50231
1.276                  0.9906813       -26.62701
1.28                   0.9906194        -26.7525
1.284                  0.9905598       -26.87877
1.288                  0.9905022       -27.00587
1.292                  0.9904466       -27.13379
1.296                  0.9903925       -27.26257
1.3                      0.99034       -27.39222
1.304                  0.9902887       -27.52275
1.308                  0.9902384        -27.6542
1.312                  0.9901889       -27.78657
1.316                    0.99014       -27.91988
1.32                   0.9900914       -28.05414
1.324                  0.9900429       -28.18938
1.328                  0.9899941       -28.32561
1.332                  0.9899448       -28.46283
1.336                  0.9898947       -28.60108
1.34                   0.9898435       -28.74035
1.344                   0.989791       -28.88067
1.348                  0.9897368       -29.02204
1.352                  0.9896807       -29.16448
1.356                   0.989622       -29.30801
1.36                    0.989561       -29.45261
1.364                  0.9894968       -29.59832
1.368                  0.9894294       -29.74513
1.372                  0.9893584       -29.89306
1.376                  0.9892834        -30.0421
1.38                   0.9892043       -30.19228
1.384                  0.9891204        -30.3436
1.388                  0.9890317       -30.49605
1.392                  0.9889376       -30.64966
1.396                  0.9888382       -30.80441
1.4                    0.9887326       -30.96032
1.404                   0.988621       -31.11738
1.408                  0.9885026       -31.27561
1.412                  0.9883775       -31.43499
1.416                  0.9882452       -31.59554
1.42                   0.9881055       -31.75725
1.424                  0.9879579       -31.92012
1.428                  0.9878022       -32.08415
1.432                  0.9876382       -32.24934
1.436                  0.9874656       -32.41569
1.44                   0.9872841        -32.5832
1.444                  0.9870935       -32.75186
1.448                  0.9868935       -32.92167
1.452                  0.9866838       -33.09263
1.456                  0.9864644       -33.26472
1.46                   0.9862348       -33.43796
1.464                   0.985995       -33.61233
1.468                  0.9857446       -33.78783
1.472                  0.9854838       -33.96445
1.476                   0.985212       -34.14219
1.48                   0.9849293       -34.32104
1.484                  0.9846353       -34.50101
1.488                  0.9843303       -34.68207
1.492                   0.984014       -34.86423
1.496                  0.9836862       -35.04749
1.5                    0.9833467       -35.23182
1.504                  0.9829957       -35.41724
1.508                   0.982633       -35.60374
1.512                  0.9822586        -35.7913
1.516                  0.9818724       -35.97994
1.52                   0.9814746       -36.16963
1.524                  0.9810649       -36.36039
1.528                  0.9806433        -36.5522
1.532                  0.9802101       -36.74506
1.536                  0.9797651       -36.93896
1.54                   0.9793086       -37.13392
1.544                  0.9788403       -37.32992
1.548                  0.9783605       -37.52697
1.552                  0.9778692       -37.72505
1.556                  0.9773667        -37.9242
1.56                   0.9768528       -38.12438
1.564                  0.9763279       -38.32561
1.568                  0.9757918       -38.52789
1.572                  0.9752449       -38.73122
1.576                  0.9746871       -38.93563
1.58                   0.9741189        -39.1411
1.584                  0.9735401       -39.34764
1.588                  0.9729511       -39.55527
1.592                   0.972352       -39.76398
1.596                  0.9717428        -39.9738
1.6                     0.971124       -40.18472
1.604                  0.9704955       -40.39678
1.608                  0.9698575       -40.60997
1.612                  0.9692105       -40.82432
1.616                  0.9685543       -41.03984
1.62                   0.9678892       -41.25655
1.624                  0.9672155       -41.47447
1.628                  0.9665332       -41.69361
1.632                  0.9658426         -41.914
1.636                  0.9651439       -42.13568
1.64                   0.9644372       -42.35864
1.644                  0.9637226       -42.58293
1.648                  0.9630003       -42.80857
1.652                  0.9622704       -43.03559
1.656                  0.9615332       -43.26402
1.66                   0.9607887       -43.49389
1.664                   0.960037       -43.72524
1.668                  0.9592781       -43.95809
1.672                  0.9585123       -44.19249
1.676                  0.9577396       -44.42847
1.68                   0.9569599       -44.66607
1.684                  0.9561735       -44.90533
1.688                  0.9553802        -45.1463
1.692                  0.9545801         -45.389
1.696                  0.9537733       -45.63349
1.7                    0.9529594       -45.87982
1.704                  0.9521387       -46.12802
1.708                  0.9513109       -46.37815
1.712                  0.9504761       -46.63025
1.716                  0.9496339       -46.88438
1.72                   0.9487844       -47.14058
1.724                  0.9479273       -47.39891
1.728                  0.9470624       -47.65941
1.732                  0.9461897       -47.92215
1.736                  0.9453085       -48.18718
1.74                   0.9444188       -48.45454
1.744                  0.9435204       -48.72431
1.748                  0.9426126       -48.99653
1.752                  0.9416954       -49.27126
1.756                  0.9407681       -49.54857
1.76                   0.9398306       -49.82849
1.764                  0.9388821       -50.11111
1.768                  0.9379225       -50.39649
1.772                  0.9369509       -50.68467
1.776                  0.9359669       -50.97571
1.78                     0.93497       -51.26969
1.784                  0.9339596       -51.56665
1.788                  0.9329352       -51.86666
1.792                  0.9318959       -52.16979
1.796                  0.9308408       -52.47609
1.8                    0.9297699       -52.78563
1.804                  0.9286817       -53.09846
1.808                  0.9275758       -53.41464
1.812                  0.9264515       -53.73425
1.816                  0.9253077       -54.05733
1.82                   0.9241439       -54.38395
1.824                  0.9229589       -54.71417
1.828                  0.9217518       -55.04805
1.832                  0.9205219       -55.38564
1.836                   0.919268       -55.72701
1.84                   0.9179895       -56.07222
1.844                  0.9166851       -56.42132
1.848                  0.9153538       -56.77435
1.852                  0.9139947       -57.13141
1.856                  0.9126067       -57.49252
1.86                   0.9111887       -57.85775
1.864                  0.9097397       -58.22715
1.868                  0.9082585       -58.60079
1.872                   0.906744       -58.97869
1.876                  0.9051953       -59.36094
1.88                   0.9036109       -59.74756
1.884                  0.9019899       -60.13862
1.888                  0.9003311       -60.53417
1.892                  0.8986334       -60.93425
1.896                  0.8968956        -61.3389
1.9                    0.8951164       -61.74821
1.904                  0.8932949       -62.16219
1.908                  0.8914296       -62.58089
1.912                  0.8895196       -63.00436
1.916                  0.8875636       -63.43266
1.92                   0.8855604       -63.86582
1.924                  0.8835091       -64.30386
1.928                  0.8814081       -64.74689
1.932                  0.8792566       -65.19489
1.936                  0.8770532       -65.64793
1.94                   0.8747972       -66.10605
1.944                   0.872487       -66.56927
1.948                  0.8701217       -67.03766
1.952                  0.8677002       -67.51124
1.956                  0.8652214       -67.99007
1.96                   0.8626843       -68.47418
1.964                  0.8600878       -68.96361
1.968                  0.8574309       -69.45837
1.972                  0.8547127       -69.95855
1.976                  0.8519319       -70.46417
1.98                   0.8490879       -70.97525
1.984                  0.8461797       -71.49185
1.988                  0.8432063         -72.014
1.992                  0.8401668       -72.54176
1.996                  0.8370605       -73.07514
2                      0.8338864        -73.6142
2.004                  0.8306441       -74.15897
2.008                  0.8273325       -74.70949
2.012                   0.823951       -75.26583
2.016                  0.8204989         -75.828
2.02                   0.8169756       -76.39606
2.024                  0.8133805       -76.97004
2.028                  0.8097131          -77.55
2.032                  0.8059728       -78.13601
2.036                  0.8021592       -78.72807
2.04                   0.7982718       -79.32626
2.044                  0.7943103       -79.93063
2.048                  0.7902742       -80.54124
2.052                  0.7861635       -81.15812
2.056                  0.7819776       -81.78136
2.06                   0.7777165       -82.41099
2.064                  0.7733801        -83.0471
2.068                  0.7689681       -83.68974
2.072                  0.7644807       -84.33897
2.076                  0.7599176       -84.99488
2.08                   0.7552791       -85.65752
2.084                  0.7505653       -86.32699
2.088                  0.7457762       -87.00337
2.092                  0.7409123       -87.68672
2.096                  0.7359735       -88.37714
2.1                    0.7309605       -89.07475
2.104                  0.7258734       -89.77959
2.108                  0.7207128       -90.49181
2.112                  0.7154791        -91.2115
2.116                   0.710173       -91.93875
2.12                   0.7047953       -92.67372
2.124                  0.6993463       -93.41651
2.128                  0.6938269       -94.16724
2.132                   0.688238       -94.92603
2.136                  0.6825804       -95.69308
2.14                   0.6768552        -96.4685
2.144                  0.6710632       -97.25242
2.148                  0.6652057       -98.04505
2.152                  0.6592838       -98.84656
2.156                  0.6532986        -99.6571
2.16                   0.6472516       -100.4769
2.164                  0.6411439       -101.3061
2.168                  0.6349772        -102.145
2.172                  0.6287529       -102.9937
2.176                  0.6224726       -103.8525
2.18                   0.6161381       -104.7217
2.184                   0.609751       -105.6015
2.188                  0.6033131       -106.4921
2.192                  0.5968265       -107.3939
2.196                   0.590293       -108.3072
2.2                    0.5837148       -109.2322
2.204                   0.577094       -110.1693
2.208                   0.570433       -111.1188
2.212                  0.5637341       -112.0812
2.216                  0.5569996       -113.0567
2.22                   0.5502323       -114.0458
2.224                  0.5434347       -115.0488
2.228                  0.5366095       -116.0663
2.232                  0.5297598       -117.0988
2.236                  0.5228884       -118.1465
2.24                   0.5159984       -119.2102
2.244                   0.509093       -120.2903
2.248                  0.5021755       -121.3873
2.252                  0.4952495       -122.5019
2.256                  0.4883185       -123.6347
2.26                   0.4813863       -124.7863
2.264                  0.4744566       -125.9573
2.268                  0.4675336       -127.1485
2.272                  0.4606213       -128.3605
2.276                  0.4537241       -129.5942
2.28                   0.4468467       -130.8502
2.284                  0.4399934       -132.1295
2.288                  0.4331693       -133.4329
2.292                  0.4263794       -134.7611
2.296                  0.4196288       -136.1152
2.3                     0.412923       -137.4961
2.304                  0.4062677       -138.9046
2.308                  0.3996685       -140.3418
2.312                  0.3931317       -141.8086
2.316                  0.3866636       -143.3061
2.32                   0.3802704       -144.8352
2.324                  0.3739592       -146.3969
2.328                  0.3677367       -147.9924
2.332                  0.3616102       -149.6225
2.336                  0.3555873       -151.2882
2.34                   0.3496754       -152.9905
2.344                  0.3438825       -154.7302
2.348                  0.3382168       -156.5083
2.352                  0.3326865       -158.3254