! TOUCHSTONE file generated by CST MICROWAVE STUDIO
! Date and time: Sat May 14 12:00:58 2022
! Project name: AppElm_antenne_dipole_Alumina.cst
! Parameters = {L=33; e=0.035; f=2.45e+09; h=1.6; i=0.8; l1=2; lambda=122.449; ls=27; wl=1.7; ws=80}
! Header version: 2018
! Port assignment regex: !\s*Touchstone port\s*([0-9]+)\s*=\s*(CST MWS port|CST DS port)\s*([0-9]+|Zmin|Zmax)\s*\(\"(.*)\"\)(\s*mode\s*([0-9]+))?.*
! Touchstone port assignment:
! Touchstone port 1 = CST MWS port 1 ("")
# GHz S MA R 50
0                              1              -0
0.004                  0.9999987     -0.06963252
0.008                  0.9999944      -0.1392578
0.012                  0.9999876      -0.2088685
0.016                   0.999978      -0.2784574
0.02                   0.9999658      -0.3480174
0.024                  0.9999508      -0.4175414
0.028                  0.9999331      -0.4870225
0.032                   0.999913      -0.5564537
0.036                  0.9998903      -0.6258284
0.04                    0.999865        -0.69514
0.044                  0.9998376      -0.7643821
0.048                  0.9998075      -0.8335486
0.052                  0.9997753      -0.9026335
0.056                   0.999741      -0.9716308
0.06                   0.9997045       -1.040535
0.064                   0.999666       -1.109342
0.068                  0.9996257       -1.178046
0.072                  0.9995836       -1.246641
0.076                  0.9995398       -1.315125
0.08                   0.9994944       -1.383493
0.084                  0.9994475       -1.451741
0.088                  0.9993994       -1.519866
0.092                    0.99935       -1.587865
0.096                  0.9992995       -1.655735
0.1                    0.9992482       -1.723474
0.104                  0.9991959       -1.791081
0.108                  0.9991431       -1.858553
0.112                  0.9990896        -1.92589
0.116                  0.9990357       -1.993091
0.12                   0.9989817       -2.060156
0.124                  0.9989275       -2.127084
0.128                  0.9988733       -2.193877
0.132                  0.9988192       -2.260536
0.136                  0.9987655       -2.327061
0.14                   0.9987122       -2.393454
0.144                  0.9986594       -2.459719
0.148                  0.9986074       -2.525857
0.152                  0.9985563       -2.591872
0.156                  0.9985061       -2.657766
0.16                   0.9984571       -2.723544
0.164                  0.9984093       -2.789209
0.168                  0.9983629       -2.854767
0.172                  0.9983179       -2.920223
0.176                  0.9982745       -2.985581
0.18                    0.998233       -3.050847
0.184                  0.9981932       -3.116027
0.188                  0.9981553       -3.181128
0.192                  0.9981196       -3.246156
0.196                  0.9980859       -3.311118
0.2                    0.9980545        -3.37602
0.204                  0.9980253       -3.440872
0.208                  0.9979986       -3.505679
0.212                  0.9979743       -3.570451
0.216                  0.9979525       -3.635195
0.22                   0.9979332       -3.699919
0.224                  0.9979167       -3.764631
0.228                  0.9979028       -3.829341
0.232                  0.9978916       -3.894058
0.236                  0.9978832       -3.958789
0.24                   0.9978774       -4.023545
0.244                  0.9978746       -4.088333
0.248                  0.9978744       -4.153163
0.252                  0.9978771       -4.218045
0.256                  0.9978825       -4.282987
0.26                   0.9978909       -4.347997
0.264                  0.9979018       -4.413086
0.268                  0.9979155       -4.478261
0.272                   0.997932       -4.543533
0.276                   0.997951        -4.60891
0.28                   0.9979726       -4.674401
0.284                   0.997997       -4.740013
0.288                  0.9980237       -4.805755
0.292                  0.9980527       -4.871637
0.296                  0.9980843       -4.937663
0.3                    0.9981179       -5.003845
0.304                  0.9981539       -5.070187
0.308                  0.9981919       -5.136699
0.312                  0.9982318       -5.203387
0.316                  0.9982737       -5.270257
0.32                   0.9983172       -5.337316
0.324                  0.9983626       -5.404569
0.328                  0.9984094       -5.472023
0.332                  0.9984575       -5.539684
0.336                   0.998507       -5.607555
0.34                   0.9985576       -5.675643
0.344                  0.9986092        -5.74395
0.348                  0.9986618        -5.81248
0.352                  0.9987151       -5.881238
0.356                  0.9987689       -5.950227
0.36                   0.9988233       -6.019448
0.364                  0.9988779       -6.088905
0.368                  0.9989327       -6.158598
0.372                  0.9989875       -6.228531
0.376                  0.9990423       -6.298701
0.38                   0.9990966       -6.369114
0.384                  0.9991505       -6.439766
0.388                   0.999204       -6.510658
0.392                  0.9992567       -6.581789
0.396                  0.9993086       -6.653158
0.4                    0.9993594       -6.724765
0.404                  0.9994091       -6.796605
0.408                  0.9994573        -6.86868
0.412                  0.9995045       -6.940981
0.416                  0.9995499       -7.013511
0.42                   0.9995937       -7.086263
0.424                  0.9996356       -7.159235
0.428                  0.9996757       -7.232423
0.432                  0.9997137        -7.30582
0.436                  0.9997497       -7.379424
0.44                   0.9997833       -7.453227
0.444                  0.9998145       -7.527228
0.448                  0.9998433       -7.601417
0.452                  0.9998698       -7.675789
0.456                  0.9998935        -7.75034
0.46                   0.9999144       -7.825062
0.464                  0.9999328       -7.899945
0.468                  0.9999482        -7.97499
0.472                  0.9999609       -8.050182
0.476                  0.9999706       -8.125518
0.48                   0.9999773       -8.200992
0.484                   0.999981       -8.276593
0.488                  0.9999818       -8.352317
0.492                  0.9999794       -8.428152
0.496                  0.9999742       -8.504096
0.5                    0.9999658       -8.580137
0.504                  0.9999543        -8.65627
0.508                    0.99994       -8.732484
0.512                  0.9999225       -8.808776
0.516                  0.9999021       -8.885138
0.52                   0.9998787       -8.961558
0.524                  0.9998524       -9.038034
0.528                  0.9998232       -9.114556
0.532                  0.9997913       -9.191118
0.536                  0.9997566       -9.267711
0.54                   0.9997194       -9.344335
0.544                  0.9996794       -9.420975
0.548                   0.999637        -9.49763
0.552                  0.9995922       -9.574295
0.556                  0.9995451       -9.650961
0.56                   0.9994958       -9.727623
0.564                  0.9994444       -9.804279
0.568                   0.999391       -9.880921
0.572                  0.9993359       -9.957548
0.576                  0.9992788       -10.03415
0.58                   0.9992202       -10.11073
0.584                  0.9991602       -10.18729
0.588                  0.9990988       -10.26381
0.592                  0.9990362        -10.3403
0.596                  0.9989725       -10.41676
0.6                     0.998908       -10.49317
0.604                  0.9988427       -10.56956
0.608                  0.9987768        -10.6459
0.612                  0.9987105       -10.72221
0.616                  0.9986439       -10.79847
0.62                   0.9985772        -10.8747
0.624                  0.9985104        -10.9509
0.628                  0.9984437       -11.02706
0.632                  0.9983776       -11.10319
0.636                  0.9983118       -11.17928
0.64                   0.9982468       -11.25536
0.644                  0.9981825        -11.3314
0.648                  0.9981192       -11.40743
0.652                  0.9980569       -11.48345
0.656                  0.9979959       -11.55945
0.66                   0.9979362       -11.63546
0.664                  0.9978782       -11.71146
0.668                  0.9978217       -11.78747
0.672                  0.9977672        -11.8635
0.676                  0.9977144       -11.93954
0.68                   0.9976637       -12.01562
0.684                  0.9976152       -12.09173
0.688                  0.9975688       -12.16789
0.692                  0.9975249        -12.2441
0.696                  0.9974835       -12.32038
0.7                    0.9974446       -12.39673
0.704                  0.9974083       -12.47316
0.708                  0.9973748       -12.54967
0.712                   0.997344        -12.6263
0.716                  0.9973162       -12.70303
0.72                   0.9972912       -12.77988
0.724                  0.9972692       -12.85687
0.728                  0.9972502         -12.934
0.732                  0.9972341       -13.01128
0.736                  0.9972212       -13.08873
0.74                   0.9972114       -13.16636
0.744                  0.9972044       -13.24417
0.748                  0.9972008       -13.32218
0.752                  0.9972001       -13.40041
0.756                  0.9972024       -13.47885
0.76                   0.9972077       -13.55753
0.764                  0.9972162       -13.63645
0.768                  0.9972272       -13.71563
0.772                  0.9972414       -13.79508
0.776                  0.9972583        -13.8748
0.78                   0.9972779       -13.95481
0.784                  0.9973003       -14.03512
0.788                  0.9973252       -14.11574
0.792                  0.9973525       -14.19668
0.796                  0.9973823       -14.27795
0.8                    0.9974141       -14.35956
0.804                  0.9974484       -14.44151
0.808                  0.9974845       -14.52383
0.812                  0.9975224       -14.60651
0.816                  0.9975623       -14.68956
0.82                   0.9976038         -14.773
0.824                  0.9976466       -14.85683
0.828                  0.9976908       -14.94106
0.832                  0.9977362       -15.02569
0.836                  0.9977825       -15.11073
0.84                   0.9978296       -15.19619
0.844                  0.9978774       -15.28207
0.848                  0.9979257       -15.36838
0.852                  0.9979743       -15.45512
0.856                  0.9980231        -15.5423
0.86                   0.9980718       -15.62992
0.864                  0.9981202       -15.71798
0.868                  0.9981682       -15.80649
0.872                  0.9982156       -15.89545
0.876                  0.9982621       -15.98485
0.88                   0.9983078        -16.0747
0.884                  0.9983523       -16.16501
0.888                  0.9983953       -16.25577
0.892                  0.9984369       -16.34698
0.896                  0.9984769       -16.43864
0.9                    0.9985148       -16.53075
0.904                  0.9985507        -16.6233
0.908                  0.9985844        -16.7163
0.912                  0.9986156       -16.80975
0.916                  0.9986444       -16.90363
0.92                   0.9986704       -16.99795
0.924                  0.9986935        -17.0927
0.928                  0.9987136       -17.18787
0.932                  0.9987306       -17.28347
0.936                  0.9987442       -17.37949
0.94                   0.9987544       -17.47591
0.944                   0.998761       -17.57274
0.948                  0.9987641       -17.66997
0.952                  0.9987633        -17.7676
0.956                  0.9987586       -17.86561
0.96                   0.9987499         -17.964
0.964                  0.9987372       -18.06276
0.968                  0.9987204       -18.16188
0.972                  0.9986993       -18.26136
0.976                  0.9986741       -18.36119
0.98                   0.9986445       -18.46136
0.984                  0.9986104       -18.56186
0.988                  0.9985722       -18.66269
0.992                  0.9985295       -18.76384
0.996                  0.9984823       -18.86529
1                      0.9984308       -18.96704
1.004                  0.9983749       -19.06908
1.008                  0.9983146       -19.17143
1.012                    0.99825       -19.27402
1.016                   0.998181       -19.37688
1.02                   0.9981076       -19.48002
1.024                  0.9980302        -19.5834
1.028                  0.9979485       -19.68703
1.032                  0.9978627        -19.7909
1.036                  0.9977731       -19.89499
1.04                   0.9976794        -19.9993
1.044                   0.997582       -20.10386
1.048                   0.997481       -20.20858
1.052                  0.9973762       -20.31357
1.056                  0.9972681       -20.41873
1.06                   0.9971566       -20.52408
1.064                  0.9970419       -20.62962
1.068                  0.9969243       -20.73535
1.072                  0.9968036       -20.84127
1.076                  0.9966803       -20.94739
1.08                   0.9965544       -21.05369
1.084                  0.9964261       -21.16013
1.088                  0.9962957       -21.26679
1.092                  0.9961632       -21.37359
1.096                  0.9960288       -21.48055
1.1                    0.9958928       -21.58773
1.104                  0.9957552        -21.6951
1.108                  0.9956164       -21.80261
1.112                  0.9954765       -21.91031
1.116                  0.9953357        -22.0182
1.12                   0.9951942       -22.12628
1.124                  0.9950522       -22.23452
1.128                  0.9949097       -22.34301
1.132                  0.9947672       -22.45168
1.136                  0.9946249       -22.56055
1.14                   0.9944827       -22.66965
1.144                  0.9943411       -22.77897
1.148                  0.9942001       -22.88852
1.152                  0.9940599       -22.99831
1.156                  0.9939206       -23.10835
1.16                   0.9937827       -23.21866
1.164                   0.993646       -23.32923
1.168                  0.9935109       -23.44009
1.172                  0.9933774       -23.55124
1.176                  0.9932458       -23.66271
1.18                   0.9931161       -23.77449
1.184                  0.9929885       -23.88661
1.188                  0.9928631       -23.99908
1.192                  0.9927402       -24.11191
1.196                  0.9926196       -24.22513
1.2                    0.9925016       -24.33873
1.204                  0.9923863       -24.45276
1.208                  0.9922736       -24.56721
1.212                  0.9921638        -24.6821
1.216                  0.9920567       -24.79747
1.22                   0.9919526       -24.91331
1.224                  0.9918516       -25.02965
1.228                  0.9917535       -25.14651
1.232                  0.9916582       -25.26391
1.236                   0.991566       -25.38186
1.24                   0.9914769       -25.50038
1.244                  0.9913906       -25.61951
1.248                  0.9913073       -25.73924
1.252                  0.9912267       -25.85961
1.256                   0.991149       -25.98062
1.26                   0.9910741       -26.10232
1.264                  0.9910017        -26.2247
1.268                  0.9909319       -26.34779
1.272                  0.9908646       -26.47161
1.276                  0.9907995       -26.59619
1.28                   0.9907367       -26.72153
1.284                  0.9906759       -26.84765
1.288                  0.9906169       -26.97459
1.292                  0.9905595       -27.10235
1.296                  0.9905038       -27.23095
1.3                    0.9904494       -27.36041
1.304                  0.9903961       -27.49074
1.308                  0.9903436       -27.62197
1.312                  0.9902918       -27.75412
1.316                  0.9902405       -27.88719
1.32                   0.9901895        -28.0212
1.324                  0.9901382       -28.15618
1.328                  0.9900868       -28.29212
1.332                  0.9900347       -28.42906
1.336                  0.9899818       -28.56699
1.34                   0.9899278       -28.70594
1.344                  0.9898722       -28.84592
1.348                   0.989815       -28.98693
1.352                  0.9897557       -29.12899
1.356                  0.9896941       -29.27212
1.36                   0.9896298       -29.41632
1.364                  0.9895626        -29.5616
1.368                   0.989492       -29.70797
1.372                   0.989418       -29.85543
1.376                  0.9893401         -30.004
1.38                   0.9892578       -30.15368
1.384                  0.9891711       -30.30448
1.388                  0.9890795        -30.4564
1.392                  0.9889827       -30.60945
1.396                  0.9888803       -30.76364
1.4                    0.9887722       -30.91896
1.404                   0.988658       -31.07542
1.408                  0.9885373       -31.23302
1.412                  0.9884099       -31.39176
1.416                  0.9882754       -31.55165
1.42                   0.9881336       -31.71268
1.424                  0.9879843       -31.87486
1.428                  0.9878269       -32.03818
1.432                  0.9876617       -32.20265
1.436                  0.9874877       -32.36825
1.44                   0.9873052         -32.535
1.444                  0.9871138       -32.70288
1.448                  0.9869132       -32.87189
1.452                  0.9867031       -33.04204
1.456                  0.9864836       -33.21332
1.46                    0.986254       -33.38573
1.464                  0.9860146       -33.55924
1.468                  0.9857649       -33.73388
1.472                  0.9855049       -33.90963
1.476                  0.9852344       -34.08648
1.48                   0.9849531       -34.26444
1.484                   0.984661       -34.44349
1.488                   0.984358       -34.62363
1.492                  0.9840437       -34.80487
1.496                  0.9837185       -34.98718
1.5                    0.9833822       -35.17057
1.504                  0.9830343       -35.35503
1.508                  0.9826752       -35.54057
1.512                  0.9823047       -35.72716
1.516                  0.9819226       -35.91481
1.52                   0.9815292       -36.10352
1.524                  0.9811242       -36.29328
1.528                  0.9807079        -36.4841
1.532                  0.9802799       -36.67596
1.536                  0.9798407       -36.86886
1.54                   0.9793901       -37.06281
1.544                  0.9789281        -37.2578
1.548                   0.978455       -37.45384
1.552                  0.9779705       -37.65092
1.556                  0.9774751       -37.84905
1.56                   0.9769687       -38.04822
1.564                  0.9764513       -38.24843
1.568                  0.9759232       -38.44971
1.572                  0.9753844       -38.65203
1.576                  0.9748353       -38.85542
1.58                   0.9742757       -39.05989
1.584                  0.9737058       -39.26542
1.588                   0.973126       -39.47205
1.592                  0.9725362       -39.67977
1.596                  0.9719366       -39.88859
1.6                    0.9713275       -40.09853
1.604                  0.9707089        -40.3096
1.608                  0.9700812       -40.52181
1.612                  0.9694444       -40.73517
1.616                  0.9687986       -40.94973
1.62                   0.9681441       -41.16547
1.624                   0.967481       -41.38242
1.628                  0.9668094       -41.60061
1.632                  0.9661298       -41.82005
1.636                   0.965442       -42.04077
1.64                   0.9647463       -42.26279
1.644                  0.9640428       -42.48614
1.648                  0.9633315       -42.71085
1.652                   0.962613       -42.93693
1.656                  0.9618868       -43.16443
1.66                   0.9611535       -43.39338
1.664                  0.9604129        -43.6238
1.668                  0.9596652       -43.85574
1.672                  0.9589105       -44.08922
1.676                  0.9581488       -44.32429
1.68                   0.9573801       -44.56098
1.684                  0.9566046       -44.79933
1.688                  0.9558222       -45.03937
1.692                  0.9550328       -45.28116
1.696                  0.9542365       -45.52473
1.7                    0.9534332       -45.77015
1.704                  0.9526228       -46.01742
1.708                  0.9518053       -46.26663
1.712                  0.9509804        -46.5178
1.716                  0.9501483       -46.77099
1.72                   0.9493085       -47.02624
1.724                  0.9484608       -47.28363
1.728                  0.9476054       -47.54316
1.732                  0.9467416       -47.80494
1.736                  0.9458696       -48.06897
1.74                   0.9449887       -48.33535
1.744                  0.9440987        -48.6041
1.748                  0.9431992        -48.8753
1.752                  0.9422901       -49.14898
1.756                  0.9413708       -49.42522
1.76                   0.9404409       -49.70407
1.764                  0.9394997        -49.9856
1.768                  0.9385472       -50.26984
1.772                  0.9375826       -50.55687
1.776                  0.9366055       -50.84674
1.78                   0.9356151       -51.13952
1.784                  0.9346109       -51.43525
1.788                  0.9335924         -51.734
1.792                  0.9325589       -52.03583
1.796                  0.9315095       -52.34081
1.8                    0.9304438       -52.64899
1.804                  0.9293609       -52.96042
1.808                  0.9282601       -53.27518
1.812                  0.9271405        -53.5933
1.816                  0.9260014       -53.91487
1.82                   0.9248419       -54.23993
1.824                   0.923661       -54.56855
1.828                  0.9224581       -54.90078
1.832                  0.9212321       -55.23668
1.836                  0.9199822       -55.57629
1.84                   0.9187072       -55.91969
1.844                  0.9174063       -56.26694
1.848                  0.9160786       -56.61807
1.852                  0.9147228       -56.97316
1.856                  0.9133381       -57.33225
1.86                   0.9119234       -57.69539
1.864                  0.9104774       -58.06265
1.868                  0.9089995       -58.43408
1.872                  0.9074882       -58.80971
1.876                  0.9059426        -59.1896
1.88                   0.9043616       -59.57382
1.884                  0.9027439        -59.9624
1.888                  0.9010885       -60.35539
1.892                  0.8993941       -60.75285
1.896                  0.8976597       -61.15481
1.9                    0.8958843       -61.56132
1.904                  0.8940664       -61.97245
1.908                  0.8922051       -62.38821
1.912                  0.8902991       -62.80868
1.916                  0.8883473       -63.23387
1.92                   0.8863486       -63.66385
1.924                  0.8843019       -64.09863
1.928                  0.8822059       -64.53828
1.932                  0.8800596       -64.98282
1.936                  0.8778618       -65.43232
1.94                   0.8756114        -65.8868
1.944                  0.8733074       -66.34631
1.948                  0.8709484       -66.81087
1.952                  0.8685337       -67.28054
1.956                   0.866062       -67.75534
1.96                   0.8635324       -68.23531
1.964                  0.8609438        -68.7205
1.968                  0.8582951       -69.21094
1.972                  0.8555855       -69.70668
1.976                   0.852814       -70.20773
1.98                   0.8499796       -70.71416
1.984                  0.8470814       -71.22599
1.988                  0.8441186       -71.74324
1.992                  0.8410901       -72.26598
1.996                  0.8379953       -72.79422
2                      0.8348335       -73.32802
2.004                  0.8316036       -73.86741
2.008                   0.828305       -74.41243
2.012                  0.8249371       -74.96314
2.016                  0.8214992       -75.51954
2.02                   0.8179906       -76.08171
2.024                  0.8144108       -76.64965
2.028                  0.8107592       -77.22344
2.032                  0.8070351       -77.80312
2.036                  0.8032384       -78.38872
2.04                   0.7993685        -78.9803
2.044                  0.7954248       -79.57792
2.048                  0.7914073       -80.18159
2.052                  0.7873156       -80.79141
2.056                  0.7831494        -81.4074
2.06                   0.7789083       -82.02962
2.064                  0.7745925       -82.65817
2.068                  0.7702017       -83.29305
2.072                  0.7657358       -83.93437
2.076                  0.7611949       -84.58216
2.08                   0.7565789       -85.23651
2.084                  0.7518881       -85.89751
2.088                  0.7471225       -86.56518
2.092                  0.7422824       -87.23967
2.096                   0.737368       -87.92099
2.1                    0.7323795       -88.60928
2.104                  0.7273174       -89.30461
2.108                  0.7221821       -90.00709
2.112                   0.716974       -90.71679
2.116                  0.7116938       -91.43384
2.12                   0.7063419       -92.15834
2.124                  0.7009193        -92.8904
2.128                  0.6954262       -93.63016
2.132                  0.6898639       -94.37773
2.136                  0.6842329       -95.13323
2.14                   0.6785341       -95.89685
2.144                  0.6727688       -96.66869
2.148                  0.6669378       -97.44891
2.152                  0.6610421       -98.23768
2.156                   0.655083       -99.03518
2.16                   0.6490619       -99.84158
2.164                  0.6429798       -100.6571
2.168                  0.6368383       -101.4818
2.172                  0.6306388       -102.3161
2.176                  0.6243828       -103.1601
2.18                   0.6180719        -104.014
2.184                  0.6117078       -104.8782
2.188                  0.6052921       -105.7527
2.192                  0.5988268        -106.638
2.196                  0.5923137       -107.5343
2.2                    0.5857549       -108.4418
2.204                  0.5791524        -109.361
2.208                  0.5725083        -110.292
2.212                   0.565825       -111.2354
2.216                  0.5591048       -112.1913
2.22                   0.5523499       -113.1603
2.224                  0.5455632       -114.1426
2.228                   0.538747       -115.1388
2.232                  0.5319043       -116.1493
2.236                  0.5250376       -117.1744
2.24                   0.5181501       -118.2148
2.244                  0.5112447       -119.2708
2.248                  0.5043246       -120.3431
2.252                  0.4973931       -121.4322
2.256                  0.4904536       -122.5387
2.26                   0.4835097       -123.6631
2.264                  0.4765648       -124.8062
2.268                  0.4696231       -125.9686
2.272                  0.4626882        -127.151
2.276                  0.4557643        -128.354
2.28                   0.4488557       -129.5786
2.284                  0.4419668       -130.8254
2.288                  0.4351022       -132.0953
2.292                  0.4282665       -133.3891
2.296                  0.4214647       -134.7077
2.3                    0.4147022        -136.052
2.304                  0.4079839        -137.423
2.308                  0.4013156       -138.8216
2.312                   0.394703       -140.2488
2.316                  0.3881519       -141.7056
2.32                   0.3816685       -143.1931
2.324                  0.3752593       -144.7122
2.328                  0.3689308        -146.264
2.332                  0.3626901       -147.8496
2.336                   0.356544         -149.47
2.34                      0.3505       -151.1262
2.344                  0.3445654       -152.8191
2.348                  0.3387484       -154.5498
2.352                  0.3330567       -156.3192