! TOUCHSTONE file generated by CST MICROWAVE STUDIO
! Date and time: Sat May 14 12:00:56 2022
! Project name: AppElm_antenne_dipole_Alumina.cst
! Parameters = {L=33; e=0.035; f=2.45e+09; h=1.6; i=0.8; l1=2; lambda=122.449; ls=24; wl=1.7; ws=80}
! Header version: 2018
! Port assignment regex: !\s*Touchstone port\s*([0-9]+)\s*=\s*(CST MWS port|CST DS port)\s*([0-9]+|Zmin|Zmax)\s*\(\"(.*)\"\)(\s*mode\s*([0-9]+))?.*
! Touchstone port assignment:
! Touchstone port 1 = CST MWS port 1 ("")
# GHz S MA R 50
0                              1              -0
0.004                  0.9999985     -0.06959684
0.008                  0.9999943      -0.1391864
0.012                  0.9999874      -0.2087613
0.016                  0.9999779      -0.2783145
0.02                   0.9999656      -0.3478386
0.024                  0.9999505      -0.4173266
0.028                  0.9999329      -0.4867715
0.032                  0.9999127      -0.5561664
0.036                  0.9998898      -0.6255046
0.04                   0.9998645      -0.6947796
0.044                   0.999837      -0.7639847
0.048                  0.9998069       -0.833114
0.052                  0.9997745      -0.9021614
0.056                  0.9997402      -0.9711211
0.06                   0.9997035       -1.039988
0.064                   0.999665       -1.108756
0.068                  0.9996245       -1.177421
0.072                  0.9995822       -1.245978
0.076                  0.9995383       -1.314422
0.08                   0.9994926        -1.38275
0.084                  0.9994458       -1.450958
0.088                  0.9993974       -1.519042
0.092                  0.9993478          -1.587
0.096                  0.9992972       -1.654828
0.1                    0.9992457       -1.722526
0.104                  0.9991933        -1.79009
0.108                  0.9991402       -1.857519
0.112                  0.9990866       -1.924813
0.116                  0.9990325       -1.991969
0.12                   0.9989782        -2.05899
0.124                  0.9989238       -2.125873
0.128                  0.9988694        -2.19262
0.132                  0.9988152       -2.259232
0.136                  0.9987613       -2.325711
0.14                   0.9987077       -2.392057
0.144                  0.9986548       -2.458274
0.148                  0.9986026       -2.524363
0.152                  0.9985512       -2.590328
0.156                  0.9985008       -2.656173
0.16                   0.9984516       -2.721901
0.164                  0.9984037       -2.787515
0.168                  0.9983569       -2.853022
0.172                  0.9983119       -2.918425
0.176                  0.9982683       -2.983731
0.18                   0.9982265       -3.048943
0.184                  0.9981865        -3.11407
0.188                  0.9981485       -3.179116
0.192                  0.9981126       -3.244089
0.196                  0.9980788       -3.308995
0.2                    0.9980472       -3.373842
0.204                  0.9980178       -3.438637
0.208                  0.9979909       -3.503387
0.212                  0.9979665       -3.568101
0.216                  0.9979445       -3.632786
0.22                   0.9979251       -3.697452
0.224                  0.9979085       -3.762106
0.228                  0.9978944       -3.826757
0.232                  0.9978831       -3.891413
0.236                  0.9978745       -3.956084
0.24                   0.9978687       -4.020779
0.244                  0.9978657       -4.085506
0.248                  0.9978656       -4.150274
0.252                  0.9978682       -4.215094
0.256                  0.9978735       -4.279973
0.26                   0.9978817       -4.344921
0.264                  0.9978927       -4.409946
0.268                  0.9979064        -4.47506
0.272                  0.9979228       -4.540268
0.276                  0.9979419       -4.605581
0.28                   0.9979635       -4.671007
0.284                  0.9979877       -4.736555
0.288                  0.9980144       -4.802234
0.292                  0.9980436        -4.86805
0.296                  0.9980752       -4.934013
0.3                    0.9981089       -5.000129
0.304                  0.9981448       -5.066408
0.308                  0.9981829       -5.132854
0.312                  0.9982229       -5.199477
0.316                  0.9982648       -5.266283
0.32                   0.9983085       -5.333277
0.324                  0.9983538       -5.400466
0.328                  0.9984007       -5.467856
0.332                   0.998449       -5.535452
0.336                  0.9984987       -5.603259
0.34                   0.9985494       -5.671282
0.344                  0.9986012       -5.739525
0.348                   0.998654       -5.807992
0.352                  0.9987074       -5.876685
0.356                  0.9987615        -5.94561
0.36                   0.9988159       -6.014769
0.364                  0.9988708       -6.084163
0.368                  0.9989257       -6.153794
0.372                  0.9989807       -6.223665
0.376                  0.9990356       -6.293774
0.38                   0.9990903       -6.364124
0.384                  0.9991444       -6.434715
0.388                  0.9991981       -6.505545
0.392                   0.999251       -6.576617
0.396                  0.9993031       -6.647926
0.4                    0.9993541       -6.719472
0.404                  0.9994041       -6.791254
0.408                  0.9994527       -6.863268
0.412                     0.9995       -6.935512
0.416                  0.9995456       -7.007984
0.42                   0.9995897       -7.080678
0.424                  0.9996319       -7.153593
0.428                  0.9996722       -7.226724
0.432                  0.9997104       -7.300065
0.436                  0.9997465       -7.373614
0.44                   0.9997804       -7.447363
0.444                   0.999812       -7.521308
0.448                   0.999841       -7.595443
0.452                  0.9998676       -7.669761
0.456                  0.9998916       -7.744258
0.46                   0.9999129       -7.818925
0.464                  0.9999314       -7.893758
0.468                  0.9999471       -7.968747
0.472                    0.99996       -8.043889
0.476                  0.9999699       -8.119175
0.48                   0.9999768       -8.194596
0.484                  0.9999808       -8.270147
0.488                  0.9999818       -8.345818
0.492                  0.9999796       -8.421605
0.496                  0.9999745       -8.497496
0.5                    0.9999663       -8.573489
0.504                   0.999955       -8.649572
0.508                  0.9999407       -8.725737
0.512                  0.9999234        -8.80198
0.516                   0.999903        -8.87829
0.52                   0.9998798       -8.954662
0.524                  0.9998536        -9.03109
0.528                  0.9998246       -9.107563
0.532                  0.9997926       -9.184076
0.536                  0.9997581       -9.260621
0.54                   0.9997209       -9.337192
0.544                   0.999681       -9.413785
0.548                  0.9996385       -9.490392
0.552                  0.9995937       -9.567005
0.556                  0.9995468       -9.643622
0.56                   0.9994973       -9.720234
0.564                  0.9994459       -9.796839
0.568                  0.9993926       -9.873431
0.572                  0.9993372       -9.950006
0.576                  0.9992801       -10.02656
0.58                   0.9992214       -10.10309
0.584                  0.9991613       -10.17959
0.588                  0.9990997       -10.25606
0.592                   0.999037        -10.3325
0.596                  0.9989733        -10.4089
0.6                    0.9989087       -10.48526
0.604                  0.9988431       -10.56159
0.608                  0.9987771       -10.63787
0.612                  0.9987106       -10.71412
0.616                  0.9986437       -10.79033
0.62                   0.9985767        -10.8665
0.624                  0.9985098       -10.94264
0.628                  0.9984431       -11.01873
0.632                  0.9983765        -11.0948
0.636                  0.9983106       -11.17083
0.64                   0.9982451       -11.24684
0.644                  0.9981806       -11.32283
0.648                   0.998117       -11.39879
0.652                  0.9980543       -11.47474
0.656                   0.997993       -11.55067
0.66                   0.9979331       -11.62661
0.664                  0.9978747       -11.70254
0.668                  0.9978179       -11.77848
0.672                  0.9977629       -11.85443
0.676                  0.9977098        -11.9304
0.68                   0.9976588        -12.0064
0.684                  0.9976099       -12.08243
0.688                  0.9975633       -12.15851
0.692                  0.9975189       -12.23464
0.696                  0.9974772       -12.31084
0.7                     0.997438        -12.3871
0.704                  0.9974014       -12.46344
0.708                  0.9973675       -12.53987
0.712                  0.9973364       -12.61641
0.716                  0.9973081       -12.69305
0.72                   0.9972828       -12.76981
0.724                  0.9972605        -12.8467
0.728                  0.9972411       -12.92374
0.732                  0.9972248       -13.00093
0.736                  0.9972115       -13.07828
0.74                   0.9972013       -13.15581
0.744                  0.9971941       -13.23352
0.748                  0.9971902       -13.31143
0.752                  0.9971891       -13.38955
0.756                  0.9971912       -13.46789
0.76                   0.9971963       -13.54646
0.764                  0.9972044       -13.62528
0.768                  0.9972153       -13.70435
0.772                  0.9972293       -13.78368
0.776                  0.9972459        -13.8633
0.78                   0.9972654       -13.94319
0.784                  0.9972876       -14.02339
0.788                  0.9973123       -14.10389
0.792                  0.9973394       -14.18472
0.796                   0.997369       -14.26587
0.8                    0.9974009       -14.34736
0.804                  0.9974349       -14.42919
0.808                   0.997471       -14.51139
0.812                   0.997509       -14.59395
0.816                  0.9975488       -14.67688
0.82                   0.9975901       -14.76019
0.824                   0.997633        -14.8439
0.828                  0.9976772         -14.928
0.832                  0.9977226        -15.0125
0.836                  0.9977691       -15.09742
0.84                   0.9978163       -15.18275
0.844                  0.9978642        -15.2685
0.848                  0.9979127       -15.35468
0.852                  0.9979613        -15.4413
0.856                  0.9980102       -15.52835
0.86                    0.998059       -15.61583
0.864                  0.9981077       -15.70376
0.868                  0.9981559       -15.79214
0.872                  0.9982035       -15.88096
0.876                  0.9982504       -15.97024
0.88                   0.9982962       -16.05996
0.884                   0.998341       -16.15013
0.888                  0.9983844       -16.24076
0.892                  0.9984263       -16.33184
0.896                  0.9984665       -16.42336
0.9                    0.9985048       -16.51534
0.904                  0.9985412       -16.60777
0.908                  0.9985752       -16.70063
0.912                  0.9986068       -16.79394
0.916                  0.9986361       -16.88769
0.92                   0.9986624       -16.98188
0.924                   0.998686        -17.0765
0.928                  0.9987065       -17.17154
0.932                  0.9987239       -17.26701
0.936                  0.9987381       -17.36289
0.94                   0.9987487       -17.45918
0.944                  0.9987558       -17.55588
0.948                  0.9987592       -17.65298
0.952                  0.9987589       -17.75048
0.956                  0.9987547       -17.84835
0.96                   0.9987465       -17.94661
0.964                  0.9987343       -18.04524
0.968                  0.9987179       -18.14424
0.972                  0.9986974       -18.24359
0.976                  0.9986726       -18.34328
0.98                   0.9986435       -18.44332
0.984                    0.99861        -18.5437
0.988                  0.9985721       -18.64439
0.992                  0.9985299       -18.74541
0.996                  0.9984832       -18.84673
1                       0.998432       -18.94835
1.004                  0.9983765       -19.05026
1.008                  0.9983166       -19.15247
1.012                  0.9982525       -19.25495
1.016                  0.9981839       -19.35767
1.02                   0.9981109       -19.46067
1.024                  0.9980338       -19.56395
1.028                  0.9979525       -19.66741
1.032                   0.997867       -19.77115
1.036                  0.9977776       -19.87513
1.04                   0.9976844        -19.9793
1.044                  0.9975872       -20.08372
1.048                  0.9974863       -20.18834
1.052                  0.9973818       -20.29316
1.056                  0.9972739       -20.39816
1.06                   0.9971626        -20.5034
1.064                  0.9970481        -20.6088
1.068                  0.9969305        -20.7144
1.072                  0.9968101       -20.82015
1.076                  0.9966868       -20.92616
1.08                    0.996561       -21.03225
1.084                  0.9964328       -21.13858
1.088                  0.9963024        -21.2451
1.092                  0.9961698       -21.35173
1.096                  0.9960354       -21.45859
1.1                    0.9958994       -21.56557
1.104                  0.9957618       -21.67278
1.108                  0.9956229       -21.78015
1.112                  0.9954828       -21.88769
1.116                  0.9953419       -21.99541
1.12                   0.9952001       -22.10333
1.124                   0.995058       -22.21144
1.128                  0.9949154       -22.31972
1.132                  0.9947726       -22.42821
1.136                    0.99463       -22.53691
1.14                   0.9944876       -22.64582
1.144                  0.9943456       -22.75496
1.148                  0.9942044       -22.86433
1.152                  0.9940639       -22.97393
1.156                  0.9939243       -23.08378
1.16                   0.9937861       -23.19388
1.164                   0.993649       -23.30426
1.168                  0.9935136       -23.41491
1.172                  0.9933797       -23.52586
1.176                  0.9932476       -23.63711
1.18                   0.9931176       -23.74868
1.184                  0.9929895       -23.86057
1.188                  0.9928638       -23.97282
1.192                  0.9927404       -24.08542
1.196                  0.9926194       -24.19841
1.2                     0.992501       -24.31178
1.204                  0.9923853       -24.42556
1.208                  0.9922723       -24.53976
1.212                  0.9921621       -24.65441
1.216                  0.9920547       -24.76951
1.22                   0.9919503       -24.88509
1.224                  0.9918488       -25.00117
1.228                  0.9917503       -25.11776
1.232                  0.9916549       -25.23488
1.236                  0.9915625       -25.35256
1.24                   0.9914729        -25.4708
1.244                  0.9913864       -25.58963
1.248                  0.9913027       -25.70907
1.252                  0.9912221       -25.82914
1.256                  0.9911442       -25.94986
1.26                   0.9910692       -26.07124
1.264                  0.9909967       -26.19331
1.268                  0.9909269       -26.31608
1.272                  0.9908595       -26.43959
1.276                  0.9907945       -26.56383
1.28                   0.9907318       -26.68883
1.284                  0.9906711       -26.81462
1.288                  0.9906121       -26.94122
1.292                  0.9905551       -27.06863
1.296                  0.9904996       -27.19688
1.3                    0.9904455       -27.32598
1.304                  0.9903925       -27.45596
1.308                  0.9903405       -27.58683
1.312                  0.9902892        -27.7186
1.316                  0.9902385       -27.85129
1.32                   0.9901879       -27.98493
1.324                  0.9901374       -28.11953
1.328                  0.9900867       -28.25508
1.332                  0.9900353       -28.39163
1.336                  0.9899832       -28.52917
1.34                     0.98993       -28.66772
1.344                  0.9898755       -28.80729
1.348                  0.9898192        -28.9479
1.352                   0.989761       -29.08955
1.356                  0.9897006       -29.23227
1.36                   0.9896374       -29.37605
1.364                  0.9895717        -29.5209
1.368                  0.9895024       -29.66685
1.372                  0.9894298       -29.81388
1.376                  0.9893533       -29.96202
1.38                   0.9892728       -30.11127
1.384                  0.9891876       -30.26163
1.388                  0.9890977        -30.4131
1.392                  0.9890027       -30.56571
1.396                  0.9889021       -30.71945
1.4                     0.988796       -30.87432
1.404                  0.9886836       -31.03032
1.408                   0.988565       -31.18747
1.412                  0.9884397       -31.34575
1.416                  0.9883075       -31.50518
1.42                   0.9881679       -31.66574
1.424                  0.9880209       -31.82745
1.428                   0.987866       -31.99029
1.432                  0.9877029        -32.1543
1.436                  0.9875316       -32.31942
1.44                   0.9873516       -32.48569
1.444                  0.9871627       -32.65309
1.448                  0.9869648       -32.82162
1.452                  0.9867574       -32.99128
1.456                  0.9865406       -33.16206
1.46                   0.9863139       -33.33398
1.464                  0.9860773         -33.507
1.468                  0.9858305       -33.68114
1.472                  0.9855735       -33.85639
1.476                  0.9853059       -34.03274
1.48                   0.9850276       -34.21018
1.484                  0.9847387       -34.38872
1.488                  0.9844388       -34.56836
1.492                  0.9841278       -34.74907
1.496                  0.9838059       -34.93086
1.5                    0.9834726       -35.11372
1.504                  0.9831281       -35.29766
1.508                  0.9827723       -35.48267
1.512                   0.982405       -35.66872
1.516                  0.9820264       -35.85585
1.52                   0.9816364       -36.04401
1.524                  0.9812348       -36.23323
1.528                  0.9808219       -36.42349
1.532                  0.9803975       -36.61479
1.536                  0.9799617       -36.80714
1.54                   0.9795146       -37.00052
1.544                  0.9790562       -37.19495
1.548                  0.9785866       -37.39041
1.552                  0.9781058       -37.58691
1.556                  0.9776139       -37.78445
1.56                   0.9771112       -37.98302
1.564                  0.9765974       -38.18265
1.568                   0.976073       -38.38332
1.572                   0.975538       -38.58503
1.576                  0.9749925       -38.78781
1.58                   0.9744366       -38.99164
1.584                  0.9738705       -39.19655
1.588                  0.9732945       -39.40253
1.592                  0.9727084        -39.6096
1.596                  0.9721126       -39.81776
1.6                    0.9715073       -40.02704
1.604                  0.9708928       -40.23743
1.608                  0.9702688       -40.44896
1.612                  0.9696358       -40.66164
1.616                  0.9689939       -40.87549
1.62                   0.9683433       -41.09052
1.624                  0.9676844       -41.30675
1.628                  0.9670169        -41.5242
1.632                  0.9663412        -41.7429
1.636                  0.9656574       -41.96287
1.64                   0.9649659       -42.18413
1.644                  0.9642665        -42.4067
1.648                  0.9635597       -42.63061
1.652                  0.9628453       -42.85589
1.656                  0.9621235       -43.08258
1.66                   0.9613946       -43.31071
1.664                  0.9606584       -43.54029
1.668                  0.9599153       -43.77137
1.672                  0.9591652       -44.00398
1.676                  0.9584081       -44.23816
1.68                   0.9576442       -44.47395
1.684                  0.9568735       -44.71138
1.688                   0.956096       -44.95051
1.692                  0.9553117       -45.19135
1.696                  0.9545204       -45.43397
1.7                    0.9537224        -45.6784
1.704                  0.9529172       -45.92469
1.708                  0.9521052       -46.17289
1.712                  0.9512859       -46.42304
1.716                  0.9504594       -46.67519
1.72                   0.9496253       -46.92939
1.724                  0.9487838       -47.18568
1.728                  0.9479346       -47.44413
1.732                  0.9470771       -47.70478
1.736                  0.9462114       -47.96769
1.74                    0.945337       -48.23291
1.744                  0.9444538        -48.5005
1.748                  0.9435613       -48.77051
1.752                  0.9426593       -49.04299
1.756                  0.9417473         -49.318
1.76                   0.9408248       -49.59561
1.764                  0.9398915       -49.87587
1.768                  0.9389469       -50.15881
1.772                  0.9379905       -50.44455
1.776                  0.9370216       -50.73309
1.78                   0.9360398       -51.02453
1.784                  0.9350445       -51.31889
1.788                  0.9340351       -51.61626
1.792                  0.9330109       -51.91668
1.796                  0.9319711       -52.22023
1.8                    0.9309153       -52.52697
1.804                  0.9298424       -52.83693
1.808                   0.928752       -53.15019
1.812                  0.9276429       -53.46681
1.816                  0.9265147       -53.78684
1.82                   0.9253665       -54.11035
1.824                  0.9241973       -54.43738
1.828                  0.9230061       -54.76802
1.832                  0.9217923       -55.10229
1.836                  0.9205546       -55.44027
1.84                   0.9192924       -55.78201
1.844                  0.9180045       -56.12758
1.848                  0.9166902         -56.477
1.852                  0.9153482       -56.83035
1.856                  0.9139773        -57.1877
1.86                    0.912577       -57.54908
1.864                  0.9111457       -57.91454
1.868                  0.9096827       -58.28414
1.872                  0.9081868       -58.65793
1.876                  0.9066568       -59.03598
1.88                   0.9050916        -59.4183
1.884                  0.9034902       -59.80498
1.888                  0.9018514       -60.19605
1.892                  0.9001741       -60.59155
1.896                  0.8984571       -60.99153
1.9                     0.896699       -61.39606
1.904                  0.8948993       -61.80515
1.908                  0.8930562       -62.21888
1.912                  0.8911689       -62.63725
1.916                  0.8892361       -63.06036
1.92                   0.8872568        -63.4882
1.924                  0.8852296       -63.92085
1.928                  0.8831535       -64.35834
1.932                  0.8810275       -64.80069
1.936                  0.8788502       -65.24797
1.94                   0.8766207        -65.7002
1.944                  0.8743377       -66.15744
1.948                  0.8720003       -66.61971
1.952                  0.8696073       -67.08703
1.956                  0.8671576       -67.55948
1.96                   0.8646504       -68.03708
1.964                  0.8620843       -68.51985
1.968                  0.8594585       -69.00787
1.972                  0.8567721       -69.50112
1.976                  0.8540239       -69.99968
1.98                    0.851213       -70.50357
1.984                  0.8483387       -71.01283
1.988                  0.8453998        -71.5275
1.992                  0.8423957        -72.0476
1.996                  0.8393254        -72.5732
2                      0.8361883       -73.10429
2.004                  0.8329832       -73.64095
2.008                  0.8297096       -74.18321
2.012                  0.8263668        -74.7311
2.016                  0.8229543       -75.28465
2.02                   0.8194711       -75.84393
2.024                  0.8159168       -76.40895
2.028                  0.8122909       -76.97978
2.032                  0.8085926       -77.55645
2.036                  0.8048218       -78.13899
2.04                   0.8009777       -78.72747
2.044                  0.7970602       -79.32192
2.048                  0.7930686        -79.9224
2.052                  0.7890028       -80.52896
2.056                  0.7848626       -81.14166
2.06                   0.7806476       -81.76053
2.064                  0.7763578       -82.38564
2.068                  0.7719929       -83.01705
2.072                  0.7675528       -83.65483
2.076                  0.7630378       -84.29904
2.08                   0.7584475       -84.94972
2.084                  0.7537822       -85.60699
2.088                   0.749042       -86.27089
2.092                  0.7442271       -86.94149
2.096                  0.7393376       -87.61888
2.1                     0.734374       -88.30315
2.104                  0.7293365       -88.99437
2.108                  0.7242256       -89.69266
2.112                  0.7190416       -90.39811
2.116                  0.7137851        -91.1108
2.12                   0.7084567       -91.83084
2.124                  0.7030571       -92.55836
2.128                  0.6975867       -93.29347
2.132                  0.6920466       -94.03628
2.136                  0.6864376       -94.78694
2.14                   0.6807604       -95.54556
2.144                  0.6750159       -96.31232
2.148                  0.6692052       -97.08732
2.152                  0.6633295       -97.87075
2.156                  0.6573897       -98.66278
2.16                   0.6513873       -99.46357
2.164                  0.6453233       -100.2733
2.168                  0.6391991       -101.0922
2.172                  0.6330162       -101.9204
2.176                  0.6267762       -102.7582
2.18                   0.6204803       -103.6057
2.184                  0.6141303       -104.4632
2.188                  0.6077281       -105.3311
2.192                  0.6012753       -106.2094
2.196                  0.5947738       -107.0985
2.2                    0.5882256       -107.9987
2.204                  0.5816325       -108.9103
2.208                   0.574997       -109.8336
2.212                  0.5683209       -110.7689
2.216                  0.5616067       -111.7166
2.22                   0.5548568        -112.677
2.224                  0.5480735       -113.6506
2.228                  0.5412594       -114.6377
2.232                  0.5344174       -115.6389
2.236                    0.52755       -116.6544
2.24                   0.5206601       -117.6848
2.244                  0.5137509       -118.7306
2.248                  0.5068251       -119.7923
2.252                  0.4998863       -120.8704
2.256                  0.4929375       -121.9656
2.26                   0.4859823       -123.0783
2.264                  0.4790243       -124.2093
2.268                  0.4720673       -125.3592
2.272                  0.4651149       -126.5287
2.276                  0.4581712       -127.7184
2.28                   0.4512404       -128.9292
2.284                  0.4443268       -130.1618
2.288                  0.4374349        -131.417
2.292                  0.4305692       -132.6956
2.296                  0.4237346       -133.9986
2.3                    0.4169361       -135.3268
2.304                  0.4101789       -136.6811
2.308                  0.4034685       -138.0625
2.312                  0.3968102        -139.472
2.316                  0.3902101       -140.9106
2.32                   0.3836741       -142.3794
2.324                  0.3772084       -143.8793
2.328                  0.3708196       -145.4114
2.332                  0.3645144       -146.9768
2.336                  0.3582996       -148.5766
2.34                   0.3521825       -150.2117
2.344                  0.3461705       -151.8832
2.348                  0.3402712       -153.5921
2.352                  0.3344926       -155.3394