! TOUCHSTONE file generated by CST MICROWAVE STUDIO
! Date and time: Sat May 14 12:01:04 2022
! Project name: AppElm_antenne_dipole_Alumina.cst
! Parameters = {L=33; e=0.035; f=2.45e+09; h=1.6; i=0.8; l1=2; lambda=122.449; ls=37.5; wl=1.7; ws=80}
! Header version: 2018
! Port assignment regex: !\s*Touchstone port\s*([0-9]+)\s*=\s*(CST MWS port|CST DS port)\s*([0-9]+|Zmin|Zmax)\s*\(\"(.*)\"\)(\s*mode\s*([0-9]+))?.*
! Touchstone port assignment:
! Touchstone port 1 = CST MWS port 1 ("")
# GHz S MA R 50
0                              1              -0
0.004                  0.9999985     -0.06987257
0.008                  0.9999942      -0.1397374
0.012                  0.9999868      -0.2095867
0.016                  0.9999766      -0.2794128
0.02                   0.9999635       -0.349208
0.024                  0.9999477      -0.4189648
0.028                   0.999929      -0.4886758
0.032                  0.9999075      -0.5583337
0.036                  0.9998835      -0.6279311
0.04                   0.9998567      -0.6974613
0.044                  0.9998274      -0.7669174
0.048                  0.9997957      -0.8362927
0.052                  0.9997615      -0.9055809
0.056                   0.999725      -0.9747757
0.06                   0.9996863       -1.043871
0.064                  0.9996456       -1.112863
0.068                  0.9996027       -1.181744
0.072                   0.999558        -1.25051
0.076                  0.9995115       -1.319156
0.08                   0.9994633       -1.387679
0.084                  0.9994136       -1.456073
0.088                  0.9993624       -1.524336
0.092                    0.99931       -1.592465
0.096                  0.9992564       -1.660456
0.1                     0.999202       -1.728306
0.104                  0.9991466       -1.796015
0.108                  0.9990903        -1.86358
0.112                  0.9990336       -1.931001
0.116                  0.9989765       -1.998276
0.12                   0.9989191       -2.065404
0.124                  0.9988615       -2.132388
0.128                  0.9988039       -2.199226
0.132                  0.9987465       -2.265919
0.136                  0.9986895        -2.33247
0.14                   0.9986329        -2.39888
0.144                  0.9985768       -2.465151
0.148                  0.9985216       -2.531286
0.152                  0.9984674       -2.597288
0.156                  0.9984141       -2.663161
0.16                    0.998362       -2.728908
0.164                  0.9983113       -2.794534
0.168                  0.9982618       -2.860045
0.172                  0.9982143       -2.925444
0.176                  0.9981682       -2.990738
0.18                   0.9981239       -3.055933
0.184                  0.9980817       -3.121035
0.188                  0.9980415       -3.186049
0.192                  0.9980035       -3.250984
0.196                  0.9979677       -3.315847
0.2                    0.9979343       -3.380645
0.204                  0.9979034       -3.445386
0.208                  0.9978749       -3.510077
0.212                  0.9978491       -3.574728
0.216                  0.9978259       -3.639347
0.22                   0.9978055       -3.703943
0.224                  0.9977879       -3.768524
0.228                   0.997773         -3.8331
0.232                  0.9977611       -3.897679
0.236                  0.9977521       -3.962272
0.24                    0.997746       -4.026887
0.244                  0.9977429       -4.091534
0.248                  0.9977428       -4.156223
0.252                  0.9977456       -4.220963
0.256                  0.9977514       -4.285764
0.26                     0.99776       -4.350635
0.264                  0.9977717       -4.415586
0.268                  0.9977862       -4.480627
0.272                  0.9978037       -4.545765
0.276                  0.9978238       -4.611013
0.28                   0.9978469       -4.676377
0.284                  0.9978726       -4.741867
0.288                   0.997901       -4.807492
0.292                  0.9979318       -4.873261
0.296                  0.9979653       -4.939181
0.3                    0.9980011       -5.005261
0.304                  0.9980391       -5.071511
0.308                  0.9980795       -5.137935
0.312                  0.9981219       -5.204541
0.316                  0.9981663       -5.271338
0.32                   0.9982127       -5.338331
0.324                  0.9982608       -5.405528
0.328                  0.9983104       -5.472934
0.332                  0.9983616       -5.540554
0.336                  0.9984141       -5.608395
0.34                    0.998468        -5.67646
0.344                  0.9985228       -5.744755
0.348                  0.9985787       -5.813284
0.352                  0.9986353        -5.88205
0.356                  0.9986926       -5.951056
0.36                   0.9987504       -6.020304
0.364                  0.9988084         -6.0898
0.368                  0.9988667       -6.159542
0.372                   0.998925       -6.229533
0.376                  0.9989831       -6.299774
0.38                    0.999041       -6.370266
0.384                  0.9990986       -6.441007
0.388                  0.9991553       -6.512001
0.392                  0.9992114       -6.583241
0.396                  0.9992666       -6.654732
0.4                    0.9993207       -6.726468
0.404                  0.9993736        -6.79845
0.408                  0.9994252       -6.870672
0.412                  0.9994753       -6.943135
0.416                  0.9995237       -7.015833
0.42                   0.9995705       -7.088763
0.424                  0.9996152       -7.161922
0.428                   0.999658       -7.235303
0.432                  0.9996986       -7.308904
0.436                   0.999737       -7.382719
0.44                   0.9997728       -7.456741
0.444                  0.9998064       -7.530965
0.448                  0.9998373       -7.605386
0.452                  0.9998655       -7.679997
0.456                   0.999891        -7.75479
0.46                   0.9999137        -7.82976
0.464                  0.9999334         -7.9049
0.468                    0.99995       -7.980201
0.472                  0.9999639       -8.055656
0.476                  0.9999744       -8.131259
0.48                   0.9999819          -8.207
0.484                  0.9999862       -8.282873
0.488                  0.9999873       -8.358869
0.492                  0.9999853        -8.43498
0.496                  0.9999799       -8.511198
0.5                    0.9999716       -8.587515
0.504                  0.9999598       -8.663923
0.508                  0.9999447       -8.740415
0.512                  0.9999266        -8.81698
0.516                  0.9999053       -8.893612
0.52                   0.9998808       -8.970304
0.524                  0.9998534       -9.047047
0.528                  0.9998227       -9.123833
0.532                  0.9997893       -9.200656
0.536                  0.9997529       -9.277506
0.54                   0.9997137       -9.354379
0.544                  0.9996718       -9.431267
0.548                  0.9996272       -9.508164
0.552                  0.9995799       -9.585064
0.556                  0.9995303       -9.661957
0.56                   0.9994784       -9.738841
0.564                  0.9994242       -9.815711
0.568                  0.9993681        -9.89256
0.572                  0.9993098       -9.969386
0.576                  0.9992496       -10.04618
0.58                   0.9991879       -10.12294
0.584                  0.9991244       -10.19967
0.588                  0.9990597       -10.27636
0.592                  0.9989938         -10.353
0.596                  0.9989266        -10.4296
0.6                    0.9988584       -10.50616
0.604                  0.9987896       -10.58266
0.608                  0.9987201       -10.65912
0.612                    0.99865       -10.73553
0.616                  0.9985797       -10.81189
0.62                   0.9985093       -10.88821
0.624                  0.9984388       -10.96447
0.628                  0.9983685        -11.0407
0.632                  0.9982987       -11.11688
0.636                  0.9982292       -11.19302
0.64                   0.9981605       -11.26912
0.644                  0.9980927       -11.34519
0.648                  0.9980258       -11.42123
0.652                  0.9979601       -11.49725
0.656                  0.9978957       -11.57325
0.66                   0.9978328       -11.64923
0.664                  0.9977715       -11.72521
0.668                   0.997712       -11.80118
0.672                  0.9976544       -11.87716
0.676                  0.9975988       -11.95316
0.68                   0.9975454       -12.02918
0.684                  0.9974943       -12.10522
0.688                  0.9974455       -12.18131
0.692                  0.9973993       -12.25744
0.696                  0.9973557       -12.33362
0.7                    0.9973149       -12.40988
0.704                  0.9972768        -12.4862
0.708                  0.9972416       -12.56262
0.712                  0.9972095       -12.63913
0.716                  0.9971804       -12.71575
0.72                   0.9971543       -12.79249
0.724                  0.9971314       -12.86936
0.728                  0.9971117       -12.94637
0.732                  0.9970953       -13.02353
0.736                   0.997082       -13.10085
0.74                   0.9970719       -13.17836
0.744                  0.9970653       -13.25605
0.748                  0.9970618       -13.33394
0.752                  0.9970617       -13.41204
0.756                  0.9970648       -13.49037
0.76                   0.9970711       -13.56893
0.764                  0.9970806       -13.64774
0.768                  0.9970931       -13.72681
0.772                  0.9971088       -13.80615
0.776                  0.9971274       -13.88577
0.78                    0.997149       -13.96569
0.784                  0.9971734       -14.04591
0.788                  0.9972005       -14.12645
0.792                  0.9972303       -14.20731
0.796                  0.9972628       -14.28851
0.8                    0.9972976       -14.37006
0.804                  0.9973347       -14.45197
0.808                   0.997374       -14.53424
0.812                  0.9974153       -14.61689
0.816                  0.9974585       -14.69993
0.82                   0.9975034       -14.78336
0.824                    0.99755       -14.86719
0.828                   0.997598       -14.95143
0.832                  0.9976472       -15.03608
0.836                  0.9976976       -15.12116
0.84                   0.9977488       -15.20667
0.844                  0.9978007       -15.29261
0.848                  0.9978534         -15.379
0.852                  0.9979062       -15.46583
0.856                  0.9979593       -15.55311
0.86                   0.9980124       -15.64084
0.864                  0.9980652       -15.72903
0.868                  0.9981176       -15.81768
0.872                  0.9981694       -15.90679
0.876                  0.9982204       -15.99637
0.88                   0.9982704       -16.08641
0.884                  0.9983192       -16.17691
0.888                  0.9983667       -16.26788
0.892                  0.9984125       -16.35932
0.896                  0.9984567       -16.45122
0.9                    0.9984988       -16.54358
0.904                  0.9985387        -16.6364
0.908                  0.9985763       -16.72968
0.912                  0.9986116       -16.82341
0.916                   0.998644        -16.9176
0.92                   0.9986737       -17.01224
0.924                  0.9987003       -17.10731
0.928                  0.9987238       -17.20283
0.932                  0.9987439       -17.29878
0.936                  0.9987606       -17.39515
0.94                   0.9987737       -17.49196
0.944                  0.9987831       -17.58917
0.948                  0.9987885       -17.68679
0.952                    0.99879       -17.78482
0.956                  0.9987875       -17.88323
0.96                   0.9987808       -17.98204
0.964                  0.9987698       -18.08123
0.968                  0.9987544       -18.18078
0.972                  0.9987348        -18.2807
0.976                  0.9987105       -18.38097
0.98                   0.9986818       -18.48159
0.984                  0.9986484       -18.58255
0.988                  0.9986105       -18.68383
0.992                   0.998568       -18.78544
0.996                  0.9985207       -18.88735
1                      0.9984688       -18.98957
1.004                  0.9984123       -19.09208
1.008                  0.9983513       -19.19487
1.012                  0.9982857       -19.29795
1.016                  0.9982153       -19.40128
1.02                   0.9981406       -19.50488
1.024                  0.9980613        -19.6087
1.028                  0.9979777       -19.71279
1.032                  0.9978898       -19.81713
1.036                  0.9977978       -19.92166
1.04                   0.9977016       -20.02646
1.044                  0.9976012       -20.13145
1.048                  0.9974972       -20.23664
1.052                  0.9973892       -20.34201
1.056                  0.9972776       -20.44761
1.06                   0.9971626       -20.55337
1.064                  0.9970442       -20.65934
1.068                  0.9969225       -20.76549
1.072                  0.9967979       -20.87179
1.076                  0.9966704       -20.97829
1.08                     0.99654       -21.08492
1.084                  0.9964074       -21.19177
1.088                  0.9962723       -21.29876
1.092                  0.9961351       -21.40591
1.096                  0.9959959       -21.51325
1.1                    0.9958551       -21.62073
1.104                  0.9957125       -21.72841
1.108                  0.9955687       -21.83621
1.112                  0.9954238       -21.94421
1.116                  0.9952778       -22.05238
1.12                   0.9951312        -22.1607
1.124                  0.9949841       -22.26925
1.128                  0.9948366       -22.37795
1.132                   0.994689       -22.48685
1.136                  0.9945416       -22.59595
1.14                   0.9943944       -22.70526
1.144                  0.9942478       -22.81477
1.148                  0.9941019       -22.92451
1.152                  0.9939569       -23.03448
1.156                  0.9938129       -23.14469
1.16                   0.9936703       -23.25515
1.164                  0.9935292       -23.36587
1.168                  0.9933896       -23.47686
1.172                  0.9932519       -23.58814
1.176                  0.9931162       -23.69972
1.18                   0.9929825       -23.81162
1.184                  0.9928511       -23.92384
1.188                  0.9927222       -24.03641
1.192                  0.9925958       -24.14933
1.196                   0.992472       -24.26263
1.2                     0.992351       -24.37631
1.204                  0.9922328       -24.49041
1.208                  0.9921177       -24.60493
1.212                  0.9920055       -24.71989
1.216                  0.9918964       -24.83532
1.22                   0.9917904       -24.95122
1.224                  0.9916878       -25.06762
1.228                  0.9915882       -25.18454
1.232                  0.9914919         -25.302
1.236                  0.9913989       -25.42002
1.24                    0.991309       -25.53861
1.244                  0.9912225        -25.6578
1.248                  0.9911389       -25.77761
1.252                  0.9910588       -25.89805
1.256                  0.9909813       -26.01916
1.26                   0.9909072       -26.14094
1.264                  0.9908359       -26.26342
1.268                  0.9907673       -26.38662
1.272                  0.9907014       -26.51056
1.276                  0.9906382       -26.63526
1.28                   0.9905773       -26.76074
1.284                  0.9905186       -26.88702
1.288                  0.9904622       -27.01412
1.292                  0.9904075       -27.14206
1.296                  0.9903547       -27.27085
1.3                    0.9903034       -27.40052
1.304                  0.9902534       -27.53108
1.308                  0.9902045       -27.66255
1.312                  0.9901563       -27.79495
1.316                  0.9901089        -27.9283
1.32                   0.9900618       -28.06261
1.324                  0.9900148        -28.1979
1.328                  0.9899676       -28.33418
1.332                    0.98992       -28.47148
1.336                  0.9898717       -28.60979
1.34                   0.9898221       -28.74914
1.344                  0.9897714       -28.88954
1.348                  0.9897188         -29.031
1.352                  0.9896645       -29.17354
1.356                  0.9896076       -29.31716
1.36                   0.9895482       -29.46188
1.364                  0.9894858        -29.6077
1.368                  0.9894202       -29.75463
1.372                   0.989351       -29.90269
1.376                  0.9892778       -30.05187
1.38                   0.9892003        -30.2022
1.384                  0.9891183       -30.35367
1.388                  0.9890311       -30.50629
1.392                  0.9889388       -30.66005
1.396                  0.9888408       -30.81498
1.4                    0.9887367       -30.97107
1.404                  0.9886265       -31.12831
1.408                  0.9885097       -31.28673
1.412                  0.9883859       -31.44632
1.416                  0.9882549       -31.60707
1.42                   0.9881162       -31.76899
1.424                  0.9879698       -31.93209
1.428                  0.9878152       -32.09634
1.432                  0.9876522       -32.26177
1.436                  0.9874804       -32.42835
1.44                   0.9872997        -32.5961
1.444                  0.9871098       -32.76501
1.448                  0.9869104       -32.93507
1.452                  0.9867012       -33.10628
1.456                  0.9864821       -33.27864
1.46                   0.9862528       -33.45215
1.464                  0.9860131       -33.62678
1.468                  0.9857627       -33.80256
1.472                  0.9855017       -33.97946
1.476                  0.9852297       -34.15748
1.48                   0.9849466       -34.33662
1.484                  0.9846524       -34.51686
1.488                  0.9843467       -34.69822
1.492                  0.9840295       -34.88067
1.496                  0.9837007       -35.06422
1.5                    0.9833603       -35.24885
1.504                  0.9830082       -35.43456
1.508                  0.9826443       -35.62135
1.512                  0.9822685       -35.80922
1.516                  0.9818808       -35.99814
1.52                   0.9814812       -36.18813
1.524                  0.9810698       -36.37918
1.528                  0.9806463       -36.57128
1.532                  0.9802112       -36.76443
1.536                   0.979764       -36.95863
1.54                   0.9793051       -37.15388
1.544                  0.9788346       -37.35016
1.548                  0.9783522       -37.54749
1.552                  0.9778585       -37.74586
1.556                  0.9773532       -37.94527
1.56                   0.9768365       -38.14573
1.564                  0.9763086       -38.34723
1.568                  0.9757696       -38.54978
1.572                  0.9752196       -38.75338
1.576                  0.9746587       -38.95804
1.58                   0.9740872       -39.16376
1.584                  0.9735053       -39.37055
1.588                  0.9729128       -39.57841
1.592                  0.9723103       -39.78736
1.596                  0.9716978        -39.9974
1.6                    0.9710754       -40.20857
1.604                  0.9704435       -40.42083
1.608                  0.9698019       -40.63425
1.612                  0.9691513        -40.8488
1.616                  0.9684915       -41.06453
1.62                   0.9678229       -41.28142
1.624                  0.9671455       -41.49953
1.628                  0.9664597       -41.71886
1.632                  0.9657656       -41.93943
1.636                  0.9650633       -42.16127
1.64                   0.9643531       -42.38439
1.644                   0.963635       -42.60885
1.648                  0.9629094       -42.83464
1.652                  0.9621761       -43.06181
1.656                  0.9614356       -43.29038
1.66                   0.9606878       -43.52039
1.664                  0.9599328       -43.75187
1.668                  0.9591711       -43.98484
1.672                  0.9584023       -44.21937
1.676                  0.9576268       -44.45547
1.68                   0.9568444       -44.69318
1.684                  0.9560553       -44.93256
1.688                  0.9552596       -45.17362
1.692                  0.9544572       -45.41643
1.696                  0.9536481       -45.66103
1.7                    0.9528322       -45.90746
1.704                  0.9520095       -46.15576
1.708                  0.9511801       -46.40598
1.712                  0.9503437       -46.65818
1.716                  0.9495001       -46.91241
1.72                   0.9486494       -47.16871
1.724                  0.9477913       -47.42713
1.728                  0.9469255       -47.68774
1.732                  0.9460521       -47.95059
1.736                  0.9451704       -48.21572
1.74                   0.9442806        -48.4832
1.744                  0.9433821       -48.75308
1.748                  0.9424744       -49.02542
1.752                  0.9415576       -49.30028
1.756                   0.940631       -49.57773
1.76                   0.9396941        -49.8578
1.764                  0.9387468       -50.14057
1.768                  0.9377882        -50.4261
1.772                  0.9368181       -50.71446
1.776                  0.9358358       -51.00569
1.78                   0.9348409       -51.29985
1.784                  0.9338324       -51.59703
1.788                  0.9328102       -51.89726
1.792                  0.9317733       -52.20063
1.796                  0.9307211       -52.50717
1.8                    0.9296528       -52.81698
1.804                  0.9285678        -53.1301
1.808                  0.9274653       -53.44658
1.812                  0.9263443        -53.7665
1.816                  0.9252043       -54.08993
1.82                   0.9240441       -54.41692
1.824                  0.9228631       -54.74751
1.828                  0.9216602       -55.08179
1.832                  0.9204345       -55.41982
1.836                  0.9191851       -55.76164
1.84                   0.9179111       -56.10732
1.844                  0.9166114       -56.45692
1.848                  0.9152849        -56.8105
1.852                  0.9139308        -57.1681
1.856                  0.9125477        -57.5298
1.86                   0.9111349       -57.89564
1.864                  0.9096909        -58.2657
1.868                  0.9082152          -58.64
1.872                  0.9067059       -59.01862
1.876                  0.9051625        -59.4016
1.88                   0.9035836         -59.789
1.884                   0.901968       -60.18086
1.888                  0.9003147       -60.57726
1.892                  0.8986224       -60.97821
1.896                  0.8968899       -61.38379
1.9                    0.8951162       -61.79404
1.904                  0.8932999       -62.20902
1.908                  0.8914399       -62.62874
1.912                  0.8895352       -63.05328
1.916                  0.8875844       -63.48268
1.92                   0.8855863       -63.91699
1.924                  0.8835398       -64.35624
1.928                  0.8814438       -64.80047
1.932                   0.879297       -65.24976
1.936                  0.8770983       -65.70411
1.94                   0.8748465       -66.16358
1.944                  0.8725406       -66.62823
1.948                  0.8701793       -67.09806
1.952                  0.8677617       -67.57315
1.956                  0.8652866       -68.05353
1.96                    0.862753       -68.53921
1.964                  0.8601596       -69.03028
1.968                  0.8575057       -69.52675
1.972                  0.8547901       -70.02867
1.976                  0.8520118       -70.53606
1.98                   0.8491698         -71.049
1.984                  0.8462634        -71.5675
1.988                  0.8432915       -72.09159
1.992                  0.8402532       -72.62134
1.996                  0.8371479       -73.15677
2                      0.8339745       -73.69793
2.004                  0.8307322       -74.24488
2.008                  0.8274205        -74.7976
2.012                  0.8240385       -75.35622
2.016                  0.8205856       -75.92072
2.02                    0.817061       -76.49116
2.024                  0.8134643        -77.0676
2.028                  0.8097948       -77.65008
2.032                   0.806052       -78.23865
2.036                  0.8022356       -78.83337
2.04                    0.798345       -79.43425
2.044                  0.7943798       -80.04138
2.048                  0.7903397       -80.65482
2.052                  0.7862243        -81.2746
2.056                  0.7820335       -81.90079
2.06                   0.7777671       -82.53347
2.064                  0.7734248       -83.17267
2.068                  0.7690067       -83.81848
2.072                  0.7645125       -84.47097
2.076                  0.7599424        -85.1302
2.08                   0.7552964       -85.79624
2.084                  0.7505746       -86.46919
2.088                  0.7457773       -87.14912
2.092                  0.7409044       -87.83611
2.096                  0.7359566       -88.53026
2.1                    0.7309339       -89.23166
2.104                  0.7258368        -89.9404
2.108                  0.7206658       -90.65662
2.112                  0.7154215       -91.38037
2.116                  0.7101042        -92.1118
2.12                   0.7047148       -92.85104
2.124                  0.6992539       -93.59819
2.128                  0.6937224       -94.35339
2.132                   0.688121       -95.11676
2.136                  0.6824505       -95.88848
2.14                   0.6767122       -96.66867
2.144                  0.6709068       -97.45752
2.148                  0.6650357       -98.25518
2.152                  0.6590997       -99.06181
2.156                  0.6531004       -99.87762
2.16                    0.647039       -100.7028
2.164                  0.6409169       -101.5375
2.168                  0.6347355       -102.3821
2.172                  0.6284964       -103.2366
2.176                  0.6222012       -104.1014
2.18                   0.6158517       -104.9767
2.184                  0.6094496       -105.8627
2.188                  0.6029967       -106.7598
2.192                  0.5964951       -107.6682
2.196                  0.5899467       -108.5882
2.2                    0.5833536       -109.5202
2.204                  0.5767182       -110.4644
2.208                  0.5700428       -111.4213
2.212                  0.5633296       -112.3912
2.216                  0.5565812       -113.3744
2.22                   0.5498003       -114.3715
2.224                  0.5429893       -115.3827
2.228                  0.5361515       -116.4087
2.232                  0.5292894       -117.4497
2.236                  0.5224063       -118.5064
2.24                   0.5155051       -119.5793
2.244                  0.5085893       -120.6688
2.248                  0.5016622       -121.7756
2.252                  0.4947273       -122.9002
2.256                  0.4877882       -124.0433
2.26                    0.480849       -125.2055
2.264                  0.4739134       -126.3874
2.268                  0.4669856       -127.5899
2.272                  0.4600698       -128.8135
2.276                  0.4531705       -130.0592
2.28                   0.4462922       -131.3276
2.284                  0.4394398       -132.6196
2.288                  0.4326181       -133.9361
2.292                  0.4258324       -135.2779
2.296                  0.4190878       -136.6458
2.3                    0.4123901        -138.041
2.304                   0.405745       -139.4642
2.308                  0.3991584       -140.9166
2.312                  0.3926364        -142.399
2.316                  0.3861856       -143.9124
2.32                   0.3798126        -145.458
2.324                  0.3735242       -147.0366
2.328                  0.3673276       -148.6492
2.332                  0.3612301       -150.2969
2.336                  0.3552393       -151.9807
2.34                    0.349363       -153.7013
2.344                  0.3436091       -155.4597
2.348                  0.3379862       -157.2567
2.352                  0.3325024        -159.093