! TOUCHSTONE file generated by CST MICROWAVE STUDIO
! Date and time: Sat May 14 12:01:01 2022
! Project name: AppElm_antenne_dipole_Alumina.cst
! Parameters = {L=33; e=0.035; f=2.45e+09; h=1.6; i=0.8; l1=2; lambda=122.449; ls=33; wl=1.7; ws=80}
! Header version: 2018
! Port assignment regex: !\s*Touchstone port\s*([0-9]+)\s*=\s*(CST MWS port|CST DS port)\s*([0-9]+|Zmin|Zmax)\s*\(\"(.*)\"\)(\s*mode\s*([0-9]+))?.*
! Touchstone port assignment:
! Touchstone port 1 = CST MWS port 1 ("")
# GHz S MA R 50
0                              1              -0
0.004                  0.9999985     -0.06974848
0.008                  0.9999943      -0.1394895
0.012                  0.9999872      -0.2092155
0.016                  0.9999773      -0.2789191
0.02                   0.9999647      -0.3485929
0.024                  0.9999493      -0.4182297
0.028                  0.9999312      -0.4878223
0.032                  0.9999105      -0.5573635
0.036                  0.9998872      -0.6268465
0.04                   0.9998613      -0.6962645
0.044                   0.999833      -0.7656111
0.048                  0.9998023      -0.8348796
0.052                  0.9997692      -0.9040642
0.056                  0.9997338      -0.9731589
0.06                   0.9996964       -1.042158
0.064                  0.9996569       -1.111056
0.068                  0.9996154       -1.179848
0.072                  0.9995722       -1.248529
0.076                  0.9995272       -1.317094
0.08                   0.9994805        -1.38554
0.084                  0.9994324       -1.453863
0.088                   0.999383       -1.522059
0.092                  0.9993322       -1.590125
0.096                  0.9992805       -1.658058
0.1                    0.9992276       -1.725857
0.104                  0.9991741       -1.793518
0.108                  0.9991196       -1.861042
0.112                  0.9990647       -1.928425
0.116                  0.9990094       -1.995669
0.12                   0.9989538       -2.062772
0.124                  0.9988982       -2.129735
0.128                  0.9988425       -2.196557
0.132                   0.998787       -2.263242
0.136                  0.9987318       -2.329788
0.14                   0.9986769       -2.396199
0.144                  0.9986228       -2.462476
0.148                  0.9985694       -2.528623
0.152                  0.9985169       -2.594642
0.156                  0.9984653       -2.660537
0.16                   0.9984149       -2.726311
0.164                  0.9983658        -2.79197
0.168                   0.998318       -2.857517
0.172                  0.9982719       -2.922958
0.176                  0.9982273       -2.988298
0.18                   0.9981846       -3.053543
0.184                  0.9981436       -3.118698
0.188                  0.9981048       -3.183771
0.192                  0.9980681       -3.248768
0.196                  0.9980333       -3.313697
0.2                    0.9980012       -3.378563
0.204                  0.9979711       -3.443376
0.208                  0.9979438       -3.508142
0.212                  0.9979186       -3.572872
0.216                  0.9978963       -3.637571
0.22                   0.9978765       -3.702248
0.224                  0.9978596       -3.766913
0.228                  0.9978453       -3.831575
0.232                  0.9978336       -3.896241
0.236                  0.9978249       -3.960922
0.24                   0.9978191       -4.025625
0.244                  0.9978161       -4.090362
0.248                  0.9978159       -4.155141
0.252                  0.9978187        -4.21997
0.256                  0.9978244        -4.28486
0.26                   0.9978328        -4.34982
0.264                  0.9978441       -4.414859
0.268                  0.9978582       -4.479986
0.272                  0.9978749        -4.54521
0.276                  0.9978946        -4.61054
0.28                   0.9979168       -4.675986
0.284                  0.9979418       -4.741555
0.288                  0.9979692       -4.807256
0.292                   0.997999       -4.873099
0.296                  0.9980314        -4.93909
0.3                    0.9980661       -5.005237
0.304                   0.998103        -5.07155
0.308                  0.9981418       -5.138035
0.312                   0.998183       -5.204698
0.316                  0.9982261       -5.271547
0.32                   0.9982708       -5.338588
0.324                  0.9983173       -5.405828
0.328                  0.9983653       -5.473273
0.332                  0.9984147       -5.540928
0.336                  0.9984657       -5.608797
0.34                   0.9985178       -5.676886
0.344                  0.9985709         -5.7452
0.348                  0.9986248       -5.813742
0.352                  0.9986796       -5.882515
0.356                   0.998735       -5.951523
0.36                   0.9987908       -6.020769
0.364                   0.998847       -6.090254
0.368                  0.9989033       -6.159981
0.372                  0.9989597       -6.229952
0.376                  0.9990159       -6.300166
0.38                   0.9990719       -6.370626
0.384                  0.9991274       -6.441329
0.388                  0.9991823       -6.512278
0.392                  0.9992364       -6.583472
0.396                  0.9992898       -6.654906
0.4                    0.9993421       -6.726583
0.404                  0.9993931       -6.798499
0.408                   0.999443       -6.870651
0.412                  0.9994913       -6.943038
0.416                  0.9995381       -7.015654
0.42                   0.9995831       -7.088498
0.424                  0.9996264       -7.161566
0.428                  0.9996676       -7.234852
0.432                  0.9997068       -7.308353
0.436                  0.9997438       -7.382063
0.44                   0.9997785       -7.455977
0.444                  0.9998107        -7.53009
0.448                  0.9998405       -7.604395
0.452                  0.9998677       -7.678886
0.456                  0.9998922       -7.753557
0.46                   0.9999139       -7.828402
0.464                  0.9999328       -7.903413
0.468                  0.9999489       -7.978586
0.472                   0.999962       -8.053909
0.476                  0.9999721       -8.129377
0.48                   0.9999793       -8.204982
0.484                  0.9999832       -8.280719
0.488                  0.9999841       -8.356577
0.492                  0.9999819       -8.432549
0.496                  0.9999766       -8.508629
0.5                    0.9999682       -8.584808
0.504                  0.9999566       -8.661078
0.508                   0.999942        -8.73743
0.512                  0.9999242       -8.813858
0.516                  0.9999034       -8.890353
0.52                   0.9998796        -8.96691
0.524                  0.9998528       -9.043518
0.528                   0.999823       -9.120172
0.532                  0.9997904       -9.196865
0.536                   0.999755        -9.27359
0.54                   0.9997167       -9.350338
0.544                  0.9996761       -9.427105
0.548                  0.9996328       -9.503883
0.552                  0.9995869       -9.580668
0.556                  0.9995386        -9.65745
0.56                   0.9994882        -9.73423
0.564                  0.9994356       -9.810997
0.568                   0.999381       -9.887749
0.572                  0.9993244       -9.964479
0.576                  0.9992661       -10.04119
0.58                    0.999206       -10.11787
0.584                  0.9991446       -10.19451
0.588                  0.9990817       -10.27113
0.592                  0.9990176        -10.3477
0.596                  0.9989524       -10.42424
0.6                    0.9988863       -10.50074
0.604                  0.9988195       -10.57719
0.608                   0.998752       -10.65361
0.612                   0.998684       -10.72998
0.616                  0.9986158        -10.8063
0.62                   0.9985474       -10.88259
0.624                   0.998479       -10.95884
0.628                  0.9984109       -11.03504
0.632                  0.9983431       -11.11121
0.636                  0.9982758       -11.18735
0.64                   0.9982091       -11.26346
0.644                  0.9981431       -11.33953
0.648                  0.9980783       -11.41559
0.652                  0.9980145       -11.49163
0.656                  0.9979521       -11.56765
0.66                    0.997891       -11.64366
0.664                  0.9978315       -11.71968
0.668                  0.9977738       -11.79569
0.672                  0.9977178       -11.87172
0.676                  0.9976638       -11.94777
0.68                   0.9976119       -12.02384
0.684                  0.9975623       -12.09995
0.688                  0.9975148        -12.1761
0.692                  0.9974699       -12.25229
0.696                  0.9974275       -12.32855
0.7                    0.9973878       -12.40488
0.704                  0.9973508       -12.48129
0.708                  0.9973165       -12.55779
0.712                  0.9972851       -12.63438
0.716                  0.9972567       -12.71109
0.72                   0.9972313       -12.78792
0.724                  0.9972089       -12.86487
0.728                  0.9971896       -12.94198
0.732                  0.9971733       -13.01923
0.736                  0.9971603       -13.09665
0.74                   0.9971504       -13.17425
0.744                  0.9971436       -13.25203
0.748                    0.99714       -13.33002
0.752                  0.9971395       -13.40821
0.756                  0.9971422       -13.48663
0.76                   0.9971479       -13.56529
0.764                  0.9971568       -13.64419
0.768                  0.9971687       -13.72334
0.772                  0.9971835       -13.80277
0.776                  0.9972011       -13.88247
0.78                   0.9972216       -13.96247
0.784                  0.9972448       -14.04277
0.788                  0.9972707       -14.12338
0.792                  0.9972991       -14.20432
0.796                    0.99733       -14.28558
0.8                    0.9973632       -14.36719
0.804                  0.9973987       -14.44916
0.808                  0.9974362       -14.53148
0.812                  0.9974757       -14.61418
0.816                  0.9975171       -14.69725
0.82                     0.99756       -14.78072
0.824                  0.9976045       -14.86458
0.828                  0.9976503       -14.94884
0.832                  0.9976973       -15.03351
0.836                  0.9977455        -15.1186
0.84                   0.9977945       -15.20411
0.844                  0.9978441       -15.29005
0.848                  0.9978943       -15.37643
0.852                  0.9979447       -15.46324
0.856                  0.9979954        -15.5505
0.86                    0.998046       -15.63819
0.864                  0.9980963       -15.72635
0.868                  0.9981463       -15.81495
0.872                  0.9981957       -15.90401
0.876                  0.9982442       -15.99352
0.88                   0.9982918       -16.08349
0.884                  0.9983382       -16.17392
0.888                  0.9983832        -16.2648
0.892                  0.9984266       -16.35615
0.896                  0.9984684       -16.44795
0.9                    0.9985082        -16.5402
0.904                  0.9985459       -16.63291
0.908                  0.9985813       -16.72607
0.912                  0.9986144       -16.81968
0.916                  0.9986448       -16.91373
0.92                   0.9986723       -17.00823
0.924                  0.9986971       -17.10316
0.928                  0.9987187       -17.19852
0.932                   0.998737       -17.29432
0.936                  0.9987519       -17.39053
0.94                   0.9987635       -17.48716
0.944                  0.9987713        -17.5842
0.948                  0.9987755       -17.68164
0.952                  0.9987757       -17.77948
0.956                   0.998772       -17.87771
0.96                   0.9987642       -17.97633
0.964                  0.9987522       -18.07532
0.968                  0.9987361       -18.17467
0.972                  0.9987156       -18.27439
0.976                  0.9986909       -18.37446
0.98                   0.9986617       -18.47487
0.984                  0.9986281       -18.57562
0.988                  0.9985899       -18.67669
0.992                  0.9985473       -18.77808
0.996                  0.9985002       -18.87978
1                      0.9984485       -18.98179
1.004                  0.9983923       -19.08408
1.008                  0.9983318       -19.18665
1.012                  0.9982668       -19.28951
1.016                  0.9981972       -19.39264
1.02                   0.9981233       -19.49603
1.024                   0.998045       -19.59968
1.028                  0.9979626       -19.70356
1.032                   0.997876       -19.80765
1.036                  0.9977852       -19.91201
1.04                   0.9976905       -20.01657
1.044                  0.9975919       -20.12137
1.048                  0.9974894       -20.22639
1.052                  0.9973834       -20.33158
1.056                  0.9972737       -20.43698
1.06                   0.9971608       -20.54258
1.064                  0.9970444       -20.64839
1.068                  0.9969251       -20.75434
1.072                  0.9968027       -20.86051
1.076                  0.9966777       -20.96684
1.08                   0.9965498       -21.07334
1.084                  0.9964197       -21.18002
1.088                  0.9962872       -21.28687
1.092                  0.9961526       -21.39392
1.096                  0.9960162        -21.5011
1.1                     0.995878       -21.60849
1.104                  0.9957383       -21.71603
1.108                  0.9955974       -21.82375
1.112                  0.9954553       -21.93165
1.116                  0.9953122       -22.03973
1.12                   0.9951685       -22.14803
1.124                  0.9950242       -22.25643
1.128                  0.9948796       -22.36509
1.132                  0.9947348       -22.47394
1.136                  0.9945902       -22.58299
1.14                    0.994446       -22.69225
1.144                  0.9943021       -22.80173
1.148                  0.9941589       -22.91144
1.152                  0.9940166       -23.02139
1.156                  0.9938753       -23.13158
1.16                   0.9937352       -23.24203
1.164                  0.9935966       -23.35275
1.168                  0.9934595       -23.46376
1.172                  0.9933242       -23.57505
1.176                  0.9931906       -23.68665
1.18                   0.9930591       -23.79856
1.184                  0.9929298       -23.91082
1.188                  0.9928028       -24.02342
1.192                  0.9926782       -24.13638
1.196                  0.9925561       -24.24972
1.2                    0.9924368       -24.36345
1.204                  0.9923201        -24.4776
1.208                  0.9922063       -24.59217
1.212                  0.9920953       -24.70719
1.216                  0.9919873       -24.82267
1.22                   0.9918823       -24.93864
1.224                  0.9917802       -25.05511
1.228                  0.9916814       -25.17209
1.232                  0.9915855       -25.28962
1.236                  0.9914929        -25.4077
1.24                   0.9914032       -25.52636
1.244                  0.9913166       -25.64561
1.248                   0.991233       -25.76548
1.252                  0.9911524       -25.88599
1.256                  0.9910747       -26.00716
1.26                   0.9909997       -26.12899
1.264                  0.9909277       -26.25153
1.268                  0.9908582       -26.37478
1.272                  0.9907913       -26.49876
1.276                  0.9907267       -26.62351
1.28                   0.9906645       -26.74902
1.284                  0.9906044       -26.87533
1.288                  0.9905462       -27.00245
1.292                  0.9904898       -27.13041
1.296                   0.990435       -27.25921
1.3                    0.9903816       -27.38888
1.304                  0.9903294       -27.51944
1.308                  0.9902782        -27.6509
1.312                  0.9902277       -27.78328
1.316                  0.9901777        -27.9166
1.32                    0.990128       -28.05087
1.324                  0.9900783       -28.18611
1.328                  0.9900284       -28.32233
1.332                  0.9899778       -28.45955
1.336                  0.9899263       -28.59779
1.34                    0.989874       -28.73705
1.344                  0.9898201       -28.87734
1.348                  0.9897644       -29.01869
1.352                  0.9897069        -29.1611
1.356                  0.9896469       -29.30458
1.36                   0.9895843       -29.44914
1.364                  0.9895186        -29.5948
1.368                  0.9894498       -29.74156
1.372                  0.9893774       -29.88943
1.376                   0.989301       -30.03842
1.38                   0.9892203       -30.18853
1.384                  0.9891351       -30.33977
1.388                  0.9890448       -30.49215
1.392                  0.9889493       -30.64567
1.396                  0.9888484       -30.80033
1.4                    0.9887415       -30.95614
1.404                  0.9886284       -31.11311
1.408                  0.9885088       -31.27122
1.412                  0.9883824       -31.43049
1.416                  0.9882488       -31.59093
1.42                   0.9881077       -31.75252
1.424                   0.987959       -31.91526
1.428                  0.9878022       -32.07916
1.432                  0.9876372       -32.24421
1.436                  0.9874635       -32.41043
1.44                   0.9872811       -32.57778
1.444                  0.9870897       -32.74628
1.448                  0.9868887       -32.91594
1.452                  0.9866784       -33.08674
1.456                  0.9864582       -33.25868
1.46                    0.986228       -33.43175
1.464                  0.9859877       -33.60594
1.468                   0.985737       -33.78127
1.472                  0.9854755       -33.95771
1.476                  0.9852036       -34.13527
1.48                   0.9849206       -34.31394
1.484                  0.9846267       -34.49372
1.488                  0.9843217        -34.6746
1.492                  0.9840054       -34.85656
1.496                  0.9836778       -35.03963
1.5                    0.9833387       -35.22377
1.504                   0.982988       -35.40899
1.508                  0.9826258       -35.59529
1.512                  0.9822519       -35.78266
1.516                  0.9818666       -35.97109
1.52                   0.9814693       -36.16059
1.524                  0.9810604       -36.35114
1.528                    0.98064       -36.54275
1.532                  0.9802078       -36.73541
1.536                   0.979764       -36.92912
1.54                   0.9793087       -37.12388
1.544                  0.9788417       -37.31968
1.548                  0.9783634       -37.51653
1.552                  0.9778737       -37.71442
1.556                  0.9773727       -37.91337
1.56                   0.9768605       -38.11336
1.564                  0.9763374        -38.3144
1.568                  0.9758032        -38.5165
1.572                  0.9752582       -38.71965
1.576                  0.9747026       -38.92387
1.58                   0.9741364       -39.12915
1.584                  0.9735596       -39.33553
1.588                  0.9729729       -39.54298
1.592                   0.972376       -39.75152
1.596                  0.9717692       -39.96117
1.6                    0.9711527       -40.17194
1.604                  0.9705268       -40.38383
1.608                  0.9698913       -40.59688
1.612                  0.9692467       -40.81107
1.616                   0.968593       -41.02645
1.62                   0.9679306       -41.24301
1.624                  0.9672594        -41.4608
1.628                  0.9665798        -41.6798
1.632                  0.9658918       -41.90007
1.636                  0.9651957       -42.12162
1.64                   0.9644917       -42.34447
1.644                  0.9637797       -42.56864
1.648                  0.9630599       -42.79417
1.652                  0.9623328       -43.02108
1.656                  0.9615982       -43.24942
1.66                   0.9608562       -43.47919
1.664                   0.960107       -43.71044
1.668                  0.9593508        -43.9432
1.672                  0.9585874       -44.17752
1.676                  0.9578172       -44.41342
1.68                   0.9570398       -44.65094
1.684                  0.9562558       -44.89013
1.688                  0.9554648       -45.13102
1.692                  0.9546669       -45.37366
1.696                  0.9538621       -45.61808
1.7                    0.9530504       -45.86435
1.704                  0.9522316        -46.1125
1.708                  0.9514057       -46.36257
1.712                  0.9505726       -46.61461
1.716                  0.9497324       -46.86869
1.72                   0.9488845       -47.12484
1.724                  0.9480289       -47.38311
1.728                  0.9471655       -47.64357
1.732                  0.9462938       -47.90625
1.736                   0.945414       -48.17123
1.74                   0.9445254       -48.43855
1.744                  0.9436279       -48.70826
1.748                  0.9427211       -48.98043
1.752                  0.9418046        -49.2551
1.756                   0.940878       -49.53235
1.76                   0.9399409       -49.81222
1.764                  0.9389929       -50.09478
1.768                  0.9380335       -50.38009
1.772                  0.9370621        -50.6682
1.776                  0.9360781       -50.95917
1.78                   0.9350812       -51.25306
1.784                  0.9340706       -51.54994
1.788                  0.9330456       -51.84987
1.792                  0.9320058        -52.1529
1.796                  0.9309503        -52.4591
1.8                    0.9298786       -52.76852
1.804                  0.9287896       -53.08123
1.808                  0.9276828       -53.39729
1.812                  0.9265572       -53.71677
1.816                  0.9254124        -54.0397
1.82                   0.9242471       -54.36617
1.824                  0.9230607       -54.69623
1.828                  0.9218522       -55.02993
1.832                  0.9206206       -55.36734
1.836                  0.9193651        -55.7085
1.84                   0.9180847        -56.0535
1.844                  0.9167783       -56.40237
1.848                  0.9154451       -56.75518
1.852                  0.9140839       -57.11197
1.856                  0.9126937       -57.47282
1.86                   0.9112735       -57.83778
1.864                  0.9098222       -58.20688
1.868                  0.9083386       -58.58022
1.872                  0.9068217       -58.95779
1.876                  0.9052705       -59.33968
1.88                   0.9036837       -59.72594
1.884                  0.9020601       -60.11663
1.888                  0.9003988       -60.51178
1.892                  0.8986985       -60.91144
1.896                  0.8969581       -61.31568
1.9                    0.8951764       -61.72451
1.904                  0.8933522       -62.13802
1.908                  0.8914843       -62.55624
1.912                  0.8895717       -62.97919
1.916                  0.8876132       -63.40695
1.92                   0.8856075       -63.83955
1.924                  0.8835535       -64.27703
1.928                  0.8814501       -64.71944
1.932                  0.8792961       -65.16684
1.936                  0.8770905       -65.61922
1.94                   0.8748319       -66.07667
1.944                  0.8725195        -66.5392
1.948                  0.8701521       -67.00688
1.952                  0.8677284       -67.47973
1.956                  0.8652477        -67.9578
1.96                   0.8627087       -68.44111
1.964                  0.8601103       -68.92972
1.968                  0.8574517       -69.42366
1.972                  0.8547318       -69.92298
1.976                  0.8519496       -70.42769
1.98                   0.8491043       -70.93786
1.984                  0.8461947       -71.45351
1.988                  0.8432203        -71.9747
1.992                  0.8401798       -72.50144
1.996                  0.8370727        -73.0338
2                      0.8338981        -73.5718
2.004                  0.8306552       -74.11548
2.008                  0.8273432       -74.66489
2.012                  0.8239616       -75.22006
2.016                  0.8205095       -75.78107
2.02                   0.8169864       -76.34792
2.024                  0.8133918       -76.92067
2.028                  0.8097249       -77.49937
2.032                  0.8059854       -78.08407
2.036                  0.8021727        -78.6748
2.04                   0.7982865       -79.27162
2.044                  0.7943263       -79.87459
2.048                  0.7902917       -80.48375
2.052                  0.7861826       -81.09916
2.056                  0.7819986        -81.7209
2.06                   0.7777396       -82.34899
2.064                  0.7734055       -82.98352
2.068                   0.768996       -83.62453
2.072                  0.7645111       -84.27211
2.076                  0.7599511       -84.92632
2.08                   0.7553156       -85.58725
2.084                  0.7506051       -86.25494
2.088                  0.7458194       -86.92949
2.092                  0.7409592         -87.611
2.096                  0.7360243       -88.29952
2.1                    0.7310152       -88.99516
2.104                  0.7259323       -89.69803
2.108                  0.7207761       -90.40822
2.112                   0.715547       -91.12581
2.116                  0.7102457       -91.85095
2.12                   0.7048728       -92.58373
2.124                  0.6994287       -93.32427
2.128                  0.6939146       -94.07272
2.132                   0.688331       -94.82918
2.136                  0.6826789       -95.59383
2.14                   0.6769592       -96.36679
2.144                   0.671173       -97.14819
2.148                  0.6653213       -97.93826
2.152                  0.6594052       -98.73711
2.156                  0.6534259       -99.54496
2.16                   0.6473849        -100.362
2.164                  0.6412833       -101.1884
2.168                  0.6351228       -102.0243
2.172                  0.6289046       -102.8701
2.176                  0.6226305       -103.7259
2.18                   0.6163022       -104.5919
2.184                  0.6099211       -105.4685
2.188                  0.6034894       -106.3558
2.192                  0.5970088       -107.2542
2.196                  0.5904813        -108.164
2.2                     0.583909       -109.0855
2.204                  0.5772941       -110.0189
2.208                  0.5706386       -110.9647
2.212                  0.5639452       -111.9231
2.216                  0.5572161       -112.8947
2.22                   0.5504538       -113.8797
2.224                   0.543661       -114.8785
2.228                  0.5368405       -115.8917
2.232                   0.529995       -116.9197
2.236                  0.5231275       -117.9629
2.24                   0.5162412       -119.0219
2.244                  0.5093391       -120.0971
2.248                  0.5024244       -121.1892
2.252                  0.4955007       -122.2987
2.256                  0.4885714       -123.4261
2.26                   0.4816405       -124.5723
2.264                  0.4747116       -125.7377
2.268                  0.4677886       -126.9231
2.272                  0.4608757       -128.1292
2.276                  0.4539772       -129.3567
2.28                   0.4470975       -130.6065
2.284                  0.4402413       -131.8793
2.288                  0.4334134        -133.176
2.292                  0.4266186       -134.4974
2.296                  0.4198622       -135.8444
2.3                    0.4131495       -137.2179
2.304                  0.4064862        -138.619
2.308                  0.3998779       -140.0485
2.312                  0.3933307       -141.5074
2.316                  0.3868507       -142.9968
2.32                   0.3804444       -144.5176
2.324                  0.3741185       -146.0708
2.328                  0.3678799       -147.6576
2.332                  0.3617356       -149.2788
2.336                  0.3556932       -150.9355
2.34                   0.3497601       -152.6286
2.344                  0.3439441        -154.359
2.348                  0.3382534       -156.1276
2.352                  0.3326962       -157.9351