! TOUCHSTONE file generated by CST MICROWAVE STUDIO
! Date and time: Sat May 14 12:01:00 2022
! Project name: AppElm_antenne_dipole_Alumina.cst
! Parameters = {L=33; e=0.035; f=2.45e+09; h=1.6; i=0.8; l1=2; lambda=122.449; ls=31.5; wl=1.7; ws=80}
! Header version: 2018
! Port assignment regex: !\s*Touchstone port\s*([0-9]+)\s*=\s*(CST MWS port|CST DS port)\s*([0-9]+|Zmin|Zmax)\s*\(\"(.*)\"\)(\s*mode\s*([0-9]+))?.*
! Touchstone port assignment:
! Touchstone port 1 = CST MWS port 1 ("")
# GHz S MA R 50
0                              1              -0
0.004                  0.9999985     -0.06970543
0.008                  0.9999943      -0.1394035
0.012                  0.9999873      -0.2090867
0.016                  0.9999776      -0.2787479
0.02                   0.9999653      -0.3483796
0.024                    0.99995      -0.4179748
0.028                  0.9999321      -0.4875263
0.032                  0.9999116      -0.5570272
0.036                  0.9998885      -0.6264705
0.04                    0.999863      -0.6958497
0.044                   0.999835      -0.7651584
0.048                  0.9998045      -0.8343901
0.052                  0.9997719      -0.9035389
0.056                  0.9997371      -0.9725987
0.06                      0.9997       -1.041564
0.064                  0.9996611        -1.11043
0.068                  0.9996201       -1.179192
0.072                  0.9995772       -1.247843
0.076                  0.9995327       -1.316381
0.08                   0.9994868       -1.384801
0.084                  0.9994392       -1.453099
0.088                  0.9993902       -1.521272
0.092                  0.9993401       -1.589317
0.096                   0.999289        -1.65723
0.1                    0.9992367       -1.725012
0.104                  0.9991837       -1.792658
0.108                    0.99913       -1.860167
0.112                  0.9990759       -1.927538
0.116                  0.9990212       -1.994772
0.12                   0.9989663       -2.061866
0.124                  0.9989112       -2.128823
0.128                  0.9988562       -2.195641
0.132                  0.9988014       -2.262322
0.136                  0.9987468       -2.328869
0.14                   0.9986927        -2.39528
0.144                  0.9986392       -2.461561
0.148                  0.9985865       -2.527713
0.152                  0.9985345       -2.593739
0.156                  0.9984835       -2.659643
0.16                   0.9984338       -2.725427
0.164                  0.9983853       -2.791098
0.168                  0.9983381        -2.85666
0.172                  0.9982925       -2.922116
0.176                  0.9982485       -2.987473
0.18                   0.9982063       -3.052736
0.184                  0.9981659       -3.117912
0.188                  0.9981275       -3.183007
0.192                  0.9980912       -3.248027
0.196                  0.9980569        -3.31298
0.2                    0.9980251       -3.377872
0.204                  0.9979955       -3.442711
0.208                  0.9979683       -3.507506
0.212                  0.9979436       -3.572263
0.216                  0.9979216       -3.636992
0.22                    0.997902         -3.7017
0.224                  0.9978852       -3.766395
0.228                  0.9978712       -3.831088
0.232                  0.9978597       -3.895788
0.236                  0.9978512       -3.960501
0.24                   0.9978454       -4.025237
0.244                  0.9978424       -4.090007
0.248                  0.9978424       -4.154818
0.252                   0.997845       -4.219682
0.256                  0.9978507       -4.284605
0.26                    0.997859       -4.349597
0.264                  0.9978702       -4.414668
0.268                  0.9978841       -4.479827
0.272                  0.9979008       -4.545084
0.276                  0.9979202       -4.610445
0.28                   0.9979422       -4.675921
0.284                  0.9979668        -4.74152
0.288                  0.9979939       -4.807251
0.292                  0.9980235       -4.873121
0.296                  0.9980554       -4.939139
0.3                    0.9980897       -5.005313
0.304                  0.9981261        -5.07165
0.308                  0.9981647       -5.138157
0.312                  0.9982052       -5.204842
0.316                  0.9982477       -5.271712
0.32                    0.998292       -5.338773
0.324                  0.9983379       -5.406031
0.328                  0.9983856        -5.47349
0.332                  0.9984345       -5.541159
0.336                  0.9984847       -5.609041
0.34                    0.998536       -5.677142
0.344                  0.9985885       -5.745463
0.348                  0.9986419       -5.814011
0.352                   0.998696       -5.882789
0.356                  0.9987506       -5.951801
0.36                   0.9988058       -6.021047
0.364                  0.9988613       -6.090532
0.368                   0.998917       -6.160256
0.372                  0.9989726       -6.230222
0.376                  0.9990281       -6.300429
0.38                   0.9990834       -6.370879
0.384                  0.9991381       -6.441573
0.388                  0.9991924       -6.512509
0.392                  0.9992459       -6.583686
0.396                  0.9992985       -6.655104
0.4                    0.9993503       -6.726762
0.404                  0.9994008       -6.798656
0.408                  0.9994498       -6.870786
0.412                  0.9994976       -6.943148
0.416                  0.9995437       -7.015738
0.42                   0.9995883       -7.088554
0.424                  0.9996309        -7.16159
0.428                  0.9996717       -7.234845
0.432                  0.9997102       -7.308313
0.436                  0.9997467       -7.381989
0.44                    0.999781       -7.455865
0.444                  0.9998128       -7.529941
0.448                  0.9998421       -7.604207
0.452                  0.9998689       -7.678658
0.456                  0.9998931       -7.753287
0.46                   0.9999145        -7.82809
0.464                  0.9999331       -7.903058
0.468                  0.9999488       -7.978185
0.472                  0.9999618       -8.053464
0.476                  0.9999716       -8.128886
0.48                   0.9999785       -8.204445
0.484                  0.9999824       -8.280134
0.488                  0.9999831       -8.355943
0.492                   0.999981       -8.431869
0.496                  0.9999756       -8.507902
0.5                    0.9999673        -8.58403
0.504                  0.9999556       -8.660251
0.508                  0.9999411       -8.736556
0.512                  0.9999233       -8.812937
0.516                  0.9999028       -8.889383
0.52                   0.9998791       -8.965893
0.524                  0.9998526       -9.042454
0.528                   0.999823       -9.119063
0.532                  0.9997907       -9.195711
0.536                  0.9997556       -9.272389
0.54                   0.9997178       -9.349094
0.544                  0.9996774       -9.425818
0.548                  0.9996343       -9.502554
0.552                   0.999589       -9.579297
0.556                  0.9995413       -9.656042
0.56                   0.9994913       -9.732782
0.564                  0.9994392       -9.809511
0.568                  0.9993851       -9.886228
0.572                  0.9993292       -9.962925
0.576                  0.9992714        -10.0396
0.58                    0.999212       -10.11625
0.584                  0.9991511       -10.19287
0.588                   0.999089       -10.26945
0.592                  0.9990255         -10.346
0.596                   0.998961       -10.42252
0.6                    0.9988957       -10.49899
0.604                  0.9988295       -10.57543
0.608                  0.9987627       -10.65183
0.612                  0.9986955       -10.72818
0.616                  0.9986279        -10.8045
0.62                   0.9985602       -10.88077
0.624                  0.9984927       -10.95701
0.628                  0.9984252       -11.03321
0.632                  0.9983581       -11.10937
0.636                  0.9982914       -11.18551
0.64                   0.9982255       -11.26161
0.644                  0.9981605       -11.33769
0.648                  0.9980963       -11.41375
0.652                  0.9980331       -11.48979
0.656                  0.9979713       -11.56582
0.66                    0.997911       -11.64184
0.664                  0.9978521       -11.71787
0.668                  0.9977949        -11.7939
0.672                  0.9977395       -11.86994
0.676                  0.9976862         -11.946
0.68                   0.9976349       -12.02209
0.684                  0.9975857       -12.09822
0.688                  0.9975389       -12.17438
0.692                  0.9974944       -12.25061
0.696                  0.9974525       -12.32689
0.7                    0.9974132       -12.40324
0.704                  0.9973766       -12.47968
0.708                  0.9973426        -12.5562
0.712                  0.9973116       -12.63283
0.716                  0.9972835       -12.70956
0.72                   0.9972583       -12.78642
0.724                  0.9972362       -12.86341
0.728                  0.9972169       -12.94054
0.732                   0.997201       -13.01782
0.736                  0.9971879       -13.09528
0.74                    0.997178       -13.17291
0.744                  0.9971712       -13.25072
0.748                  0.9971678       -13.32874
0.752                  0.9971672       -13.40697
0.756                  0.9971698       -13.48542
0.76                   0.9971755        -13.5641
0.764                  0.9971841       -13.64304
0.768                  0.9971957       -13.72222
0.772                  0.9972102       -13.80168
0.776                  0.9972275       -13.88141
0.78                   0.9972478       -13.96144
0.784                  0.9972706       -14.04176
0.788                  0.9972961        -14.1224
0.792                  0.9973241       -14.20336
0.796                  0.9973546       -14.28465
0.8                    0.9973873       -14.36629
0.804                  0.9974222       -14.44827
0.808                  0.9974592       -14.53061
0.812                   0.997498       -14.61333
0.816                  0.9975388       -14.69642
0.82                   0.9975811        -14.7799
0.824                  0.9976248       -14.86377
0.828                    0.99767       -14.94804
0.832                  0.9977164       -15.03272
0.836                  0.9977637       -15.11781
0.84                    0.997812       -15.20333
0.844                  0.9978608       -15.28927
0.848                  0.9979101       -15.37564
0.852                  0.9979598       -15.46245
0.856                  0.9980096        -15.5497
0.86                   0.9980594       -15.63739
0.864                  0.9981089       -15.72553
0.868                  0.9981581       -15.81412
0.872                  0.9982066       -15.90316
0.876                  0.9982542       -15.99266
0.88                   0.9983009       -16.08261
0.884                  0.9983465       -16.17301
0.888                  0.9983906       -16.26387
0.892                  0.9984334       -16.35518
0.896                  0.9984742       -16.44695
0.9                    0.9985132       -16.53917
0.904                  0.9985502       -16.63185
0.908                  0.9985848       -16.72497
0.912                  0.9986169       -16.81854
0.916                  0.9986467       -16.91254
0.92                   0.9986735       -17.00699
0.924                  0.9986975       -17.10187
0.928                  0.9987184       -17.19719
0.932                  0.9987361       -17.29292
0.936                  0.9987505       -17.38908
0.94                   0.9987614       -17.48566
0.944                  0.9987687       -17.58264
0.948                  0.9987723       -17.68002
0.952                  0.9987721        -17.7778
0.956                  0.9987679       -17.87597
0.96                   0.9987597       -17.97451
0.964                  0.9987473       -18.07344
0.968                  0.9987308       -18.17273
0.972                  0.9987101       -18.27237
0.976                   0.998685       -18.37237
0.98                   0.9986557       -18.47271
0.984                  0.9986218       -18.57338
0.988                  0.9985835       -18.67438
0.992                  0.9985409        -18.7757
0.996                  0.9984936       -18.87733
1                       0.998442       -18.97925
1.004                  0.9983859       -19.08147
1.008                  0.9983255         -19.184
1.012                  0.9982605       -19.28678
1.016                  0.9981911        -19.3898
1.02                   0.9981174       -19.49311
1.024                  0.9980395       -19.59668
1.028                  0.9979573       -19.70049
1.032                   0.997871       -19.80453
1.036                  0.9977806       -19.90882
1.04                   0.9976863       -20.01332
1.044                  0.9975882       -20.11801
1.048                  0.9974863       -20.22295
1.052                  0.9973808       -20.32811
1.056                  0.9972718        -20.4334
1.06                   0.9971593       -20.53894
1.064                  0.9970437       -20.64467
1.068                   0.996925       -20.75057
1.072                  0.9968035       -20.85668
1.076                  0.9966791       -20.96296
1.08                    0.996552        -21.0694
1.084                  0.9964227       -21.17603
1.088                   0.996291       -21.28283
1.092                  0.9961574       -21.38979
1.096                  0.9960217       -21.49695
1.1                    0.9958846       -21.60429
1.104                  0.9957457       -21.71179
1.108                  0.9956057       -21.81946
1.112                  0.9954645        -21.9273
1.116                  0.9953224       -22.03538
1.12                   0.9951796        -22.1436
1.124                  0.9950364       -22.25201
1.128                  0.9948926       -22.36062
1.132                  0.9947489       -22.46943
1.136                  0.9946052       -22.57845
1.14                   0.9944619       -22.68769
1.144                   0.994319       -22.79715
1.148                  0.9941767       -22.90683
1.152                  0.9940354       -23.01676
1.156                   0.993895       -23.12694
1.16                   0.9937558       -23.23738
1.164                   0.993618       -23.34809
1.168                  0.9934817       -23.45908
1.172                  0.9933472       -23.57036
1.176                  0.9932145       -23.68195
1.18                   0.9930838       -23.79387
1.184                  0.9929553       -23.90612
1.188                   0.992829       -24.01871
1.192                  0.9927051       -24.13168
1.196                  0.9925837       -24.24502
1.2                    0.9924649       -24.35876
1.204                  0.9923487       -24.47291
1.208                  0.9922355       -24.58749
1.212                  0.9921249       -24.70252
1.216                  0.9920174       -24.81801
1.22                   0.9919128       -24.93398
1.224                  0.9918112       -25.05046
1.228                  0.9917127       -25.16745
1.232                  0.9916171       -25.28499
1.236                  0.9915246       -25.40308
1.24                   0.9914351       -25.52175
1.244                  0.9913486       -25.64101
1.248                  0.9912652        -25.7609
1.252                  0.9911845       -25.88141
1.256                  0.9911069       -26.00258
1.26                   0.9910319       -26.12443
1.264                  0.9909597       -26.24697
1.268                  0.9908899       -26.37023
1.272                  0.9908229       -26.49422
1.276                  0.9907582       -26.61896
1.28                   0.9906955       -26.74449
1.284                   0.990635       -26.87079
1.288                  0.9905764       -26.99791
1.292                  0.9905196       -27.12586
1.296                  0.9904643       -27.25466
1.3                    0.9904104       -27.38433
1.304                  0.9903576       -27.51487
1.308                  0.9903058       -27.64632
1.312                  0.9902546       -27.77869
1.316                  0.9902039       -27.91199
1.32                   0.9901533       -28.04624
1.324                  0.9901029       -28.18145
1.328                  0.9900522       -28.31764
1.332                  0.9900008       -28.45483
1.336                  0.9899486       -28.59303
1.34                   0.9898952       -28.73225
1.344                  0.9898405        -28.8725
1.348                   0.989784        -29.0138
1.352                  0.9897253       -29.15617
1.356                  0.9896645       -29.29959
1.36                   0.9896009        -29.4441
1.364                  0.9895344        -29.5897
1.368                  0.9894646       -29.73639
1.372                  0.9893912       -29.88419
1.376                  0.9893137        -30.0331
1.38                   0.9892322       -30.18314
1.384                  0.9891458        -30.3343
1.388                  0.9890547       -30.48658
1.392                  0.9889584       -30.64001
1.396                  0.9888565       -30.79458
1.4                    0.9887486       -30.95029
1.404                  0.9886347       -31.10715
1.408                  0.9885143       -31.26516
1.412                   0.988387       -31.42432
1.416                  0.9882525       -31.58464
1.42                   0.9881108        -31.7461
1.424                  0.9879613       -31.90873
1.428                  0.9878037        -32.0725
1.432                  0.9876383       -32.23741
1.436                   0.987464       -32.40349
1.44                   0.9872809       -32.57071
1.444                   0.987089       -32.73907
1.448                  0.9868877       -32.90857
1.452                  0.9866769       -33.07922
1.456                  0.9864563         -33.251
1.46                   0.9862258       -33.42391
1.464                  0.9859852       -33.59795
1.468                  0.9857344       -33.77311
1.472                  0.9854729       -33.94939
1.476                   0.985201       -34.12678
1.48                   0.9849181       -34.30528
1.484                  0.9846243       -34.48488
1.488                  0.9843194       -34.66558
1.492                  0.9840033       -34.84737
1.496                  0.9836759       -35.03025
1.5                    0.9833372       -35.21422
1.504                   0.982987       -35.39926
1.508                  0.9826253       -35.58537
1.512                  0.9822522       -35.77255
1.516                  0.9818673        -35.9608
1.52                    0.981471       -36.15011
1.524                   0.981063       -36.34047
1.528                  0.9806435       -36.53189
1.532                  0.9802122       -36.72436
1.536                  0.9797694       -36.91788
1.54                   0.9793153       -37.11244
1.544                  0.9788497       -37.30806
1.548                  0.9783726       -37.50471
1.552                  0.9778842       -37.70242
1.556                  0.9773846       -37.90118
1.56                   0.9768739       -38.10098
1.564                  0.9763522       -38.30184
1.568                  0.9758197       -38.50375
1.572                  0.9752764       -38.70671
1.576                  0.9747226       -38.91075
1.58                    0.974158       -39.11586
1.584                  0.9735833       -39.32205
1.588                  0.9729983       -39.52932
1.592                  0.9724034       -39.73769
1.596                  0.9717986       -39.94716
1.6                    0.9711843       -40.15775
1.604                  0.9705602       -40.36948
1.608                  0.9699269       -40.58235
1.612                  0.9692845       -40.79639
1.616                   0.968633        -41.0116
1.62                   0.9679727       -41.22801
1.624                  0.9673039       -41.44562
1.628                  0.9666265       -41.66447
1.632                  0.9659408        -41.8846
1.636                   0.965247       -42.10599
1.64                   0.9645452       -42.32869
1.644                  0.9638355       -42.55271
1.648                  0.9631183        -42.7781
1.652                  0.9623934       -43.00487
1.656                  0.9616611       -43.23306
1.66                   0.9609213        -43.4627
1.664                  0.9601744       -43.69382
1.668                  0.9594204       -43.92646
1.672                  0.9586593       -44.16064
1.676                  0.9578913       -44.39642
1.68                   0.9571161       -44.63382
1.684                  0.9563342       -44.87287
1.688                  0.9555453       -45.11365
1.692                  0.9547495       -45.35617
1.696                  0.9539468       -45.60048
1.7                     0.953137       -45.84663
1.704                  0.9523202       -46.09465
1.708                  0.9514963        -46.3446
1.712                   0.950665       -46.59654
1.716                  0.9498264        -46.8505
1.72                   0.9489802       -47.10653
1.724                  0.9481264       -47.36469
1.728                  0.9472645       -47.62503
1.732                  0.9463944       -47.88761
1.736                   0.945516       -48.15246
1.74                   0.9446289       -48.41966
1.744                  0.9437325       -48.68926
1.748                  0.9428269        -48.9613
1.752                  0.9419115       -49.23586
1.756                   0.940986       -49.51298
1.76                     0.94005       -49.79272
1.764                  0.9391028       -50.07514
1.768                   0.938144       -50.36032
1.772                  0.9371735       -50.64828
1.776                  0.9361901       -50.93911
1.78                   0.9351938       -51.23286
1.784                  0.9341836       -51.52958
1.788                  0.9331591       -51.82934
1.792                  0.9321194       -52.13222
1.796                  0.9310643       -52.43824
1.8                    0.9299925       -52.74748
1.804                  0.9289035       -53.06001
1.808                  0.9277967       -53.37587
1.812                  0.9266711       -53.69514
1.816                   0.925526       -54.01787
1.82                   0.9243604       -54.34412
1.824                  0.9231736       -54.67395
1.828                  0.9219647       -55.00741
1.832                  0.9207327       -55.34457
1.836                  0.9194765       -55.68549
1.84                   0.9181955        -56.0302
1.844                  0.9168885       -56.37881
1.848                  0.9155545       -56.73131
1.852                  0.9141924       -57.08782
1.856                  0.9128014       -57.44835
1.86                   0.9113803       -57.81297
1.864                   0.909928       -58.18174
1.868                  0.9084434        -58.5547
1.872                  0.9069255       -58.93192
1.876                  0.9053733       -59.31342
1.88                   0.9037855       -59.69928
1.884                  0.9021608       -60.08955
1.888                  0.9004983       -60.48427
1.892                  0.8987969       -60.88349
1.896                  0.8970553       -61.28725
1.9                    0.8952725       -61.69562
1.904                  0.8934471       -62.10863
1.908                  0.8915781       -62.52632
1.912                  0.8896644       -62.94875
1.916                  0.8877047       -63.37597
1.92                    0.885698       -63.80799
1.924                  0.8836429       -64.24488
1.928                  0.8815386       -64.68668
1.932                  0.8793836       -65.13343
1.936                   0.877177       -65.58518
1.94                   0.8749176       -66.04195
1.944                  0.8726043       -66.50381
1.948                   0.870236       -66.97078
1.952                  0.8678118       -67.44288
1.956                  0.8653304        -67.9202
1.96                   0.8627907       -68.40274
1.964                   0.860192       -68.89054
1.968                  0.8575329       -69.38365
1.972                  0.8548126       -69.88212
1.976                  0.8520303       -70.38596
1.98                   0.8491847       -70.89524
1.984                  0.8462751       -71.40997
1.988                  0.8433007       -71.93021
1.992                  0.8402604       -72.45599
1.996                  0.8371537       -72.98734
2                      0.8339794       -73.52432
2.004                   0.830737       -74.06695
2.008                  0.8274257       -74.61529
2.012                  0.8240449       -75.16937
2.016                  0.8205937       -75.72923
2.02                   0.8170716       -76.29492
2.024                  0.8134781       -76.86647
2.028                  0.8098125       -77.44394
2.032                  0.8060744       -78.02738
2.036                  0.8022633       -78.61682
2.04                   0.7983787       -79.21234
2.044                  0.7944203       -79.81397
2.048                  0.7903878       -80.42174
2.052                  0.7862808       -81.03575
2.056                  0.7820991       -81.65603
2.06                   0.7778426       -82.28264
2.064                   0.773511       -82.91565
2.068                  0.7691043       -83.55511
2.072                  0.7646223       -84.20111
2.076                  0.7600651       -84.85369
2.08                   0.7554329       -85.51294
2.084                  0.7507256       -86.17891
2.088                  0.7459434       -86.85172
2.092                  0.7410865       -87.53144
2.096                  0.7361554       -88.21813
2.1                    0.7311501       -88.91189
2.104                  0.7260712       -89.61284
2.108                  0.7209189       -90.32105
2.112                   0.715694       -91.03664
2.116                  0.7103969       -91.75971
2.12                   0.7050282       -92.49037
2.124                  0.6995887       -93.22876
2.128                  0.6940791       -93.97497
2.132                  0.6885001       -94.72919
2.136                  0.6828527       -95.49149
2.14                   0.6771376       -96.26206
2.144                  0.6713562       -97.04104
2.148                  0.6655093       -97.82859
2.152                  0.6595982       -98.62488
2.156                  0.6536238       -99.43008
2.16                   0.6475877       -100.2444
2.164                   0.641491        -101.068
2.168                  0.6353353       -101.9011
2.172                  0.6291221        -102.744
2.176                  0.6228529       -103.5967
2.18                   0.6165292       -104.4597
2.184                  0.6101529       -105.3331
2.188                  0.6037259       -106.2172
2.192                  0.5972498       -107.1123
2.196                  0.5907266       -108.0187
2.2                    0.5841586       -108.9366
2.204                  0.5775478       -109.8664
2.208                  0.5708963       -110.8085
2.212                  0.5642066       -111.7631
2.216                  0.5574809       -112.7308
2.22                   0.5507219       -113.7117
2.224                   0.543932       -114.7065
2.228                  0.5371141       -115.7154
2.232                   0.530271       -116.7389
2.236                  0.5234055       -117.7776
2.24                   0.5165206       -118.8319
2.244                  0.5096195       -119.9023
2.248                  0.5027055       -120.9895
2.252                  0.4957819       -122.0938
2.256                  0.4888524       -123.2161
2.26                   0.4819205       -124.3568
2.264                  0.4749899       -125.5166
2.268                  0.4680646       -126.6963
2.272                  0.4611488       -127.8965
2.276                  0.4542466        -129.118
2.28                   0.4473624       -130.3615
2.284                  0.4405007       -131.6278
2.288                  0.4336665       -132.9178
2.292                  0.4268644       -134.2323
2.296                  0.4200998       -135.5723
2.3                    0.4133777       -136.9386
2.304                  0.4067038       -138.3322
2.308                  0.4000838       -139.7541
2.312                  0.3935235       -141.2052
2.316                  0.3870292       -142.6865
2.32                   0.3806071        -144.199
2.324                  0.3742639       -145.7439
2.328                  0.3680065        -147.322
2.332                  0.3618418       -148.9344
2.336                  0.3557772       -150.5821
2.34                   0.3498202       -152.2661
2.344                  0.3439785       -153.9873
2.348                  0.3382602       -155.7466
2.352                  0.3326733       -157.5447