! TOUCHSTONE file generated by CST MICROWAVE STUDIO
! Date and time: Sat May 14 12:00:55 2022
! Project name: AppElm_antenne_dipole_Alumina.cst
! Parameters = {L=33; e=0.035; f=2.45e+09; h=1.6; i=0.8; l1=2; lambda=122.449; ls=22.5; wl=1.7; ws=80}
! Header version: 2018
! Port assignment regex: !\s*Touchstone port\s*([0-9]+)\s*=\s*(CST MWS port|CST DS port)\s*([0-9]+|Zmin|Zmax)\s*\(\"(.*)\"\)(\s*mode\s*([0-9]+))?.*
! Touchstone port assignment:
! Touchstone port 1 = CST MWS port 1 ("")
# GHz S MA R 50
0                              1              -0
0.004                  0.9999987     -0.06958705
0.008                  0.9999945      -0.1391668
0.012                  0.9999875      -0.2087318
0.016                  0.9999778       -0.278275
0.02                   0.9999655      -0.3477889
0.024                  0.9999503      -0.4172666
0.028                  0.9999325       -0.486701
0.032                  0.9999123       -0.556085
0.036                  0.9998893      -0.6254122
0.04                   0.9998639      -0.6946756
0.044                  0.9998362      -0.7638691
0.048                   0.999806      -0.8329862
0.052                  0.9997736      -0.9020211
0.056                   0.999739      -0.9709679
0.06                   0.9997022       -1.039821
0.064                  0.9996634       -1.108575
0.068                  0.9996227       -1.177225
0.072                  0.9995802       -1.245767
0.076                   0.999536       -1.314196
0.08                   0.9994902       -1.382508
0.084                   0.999443       -1.450698
0.088                  0.9993945       -1.518765
0.092                  0.9993447       -1.586704
0.096                  0.9992938       -1.654514
0.1                    0.9992419       -1.722192
0.104                  0.9991892       -1.789735
0.108                  0.9991359       -1.857143
0.112                   0.999082       -1.924415
0.116                  0.9990277       -1.991548
0.12                   0.9989731       -2.058545
0.124                  0.9989183       -2.125404
0.128                  0.9988636       -2.192126
0.132                  0.9988092       -2.258712
0.136                  0.9987548       -2.325164
0.14                   0.9987011       -2.391483
0.144                  0.9986478       -2.457671
0.148                  0.9985954       -2.523731
0.152                  0.9985438       -2.589665
0.156                  0.9984931       -2.655479
0.16                   0.9984435       -2.721175
0.164                  0.9983952       -2.786757
0.168                  0.9983483        -2.85223
0.172                  0.9983028       -2.917599
0.176                  0.9982593       -2.982869
0.18                    0.998217       -3.048046
0.184                  0.9981769       -3.113136
0.188                  0.9981386       -3.178145
0.192                  0.9981023        -3.24308
0.196                  0.9980682       -3.307947
0.2                    0.9980365       -3.372754
0.204                  0.9980069       -3.437509
0.208                  0.9979798       -3.502218
0.212                  0.9979551       -3.566891
0.216                   0.997933       -3.631534
0.22                   0.9979135       -3.696157
0.224                  0.9978967       -3.760767
0.228                  0.9978824       -3.825374
0.232                   0.997871       -3.889986
0.236                  0.9978623       -3.954613
0.24                   0.9978564       -4.019262
0.244                  0.9978533       -4.083944
0.248                   0.997853       -4.148666
0.252                  0.9978555        -4.21344
0.256                  0.9978609       -4.278272
0.26                    0.997869       -4.343173
0.264                  0.9978799       -4.408152
0.268                  0.9978936       -4.473217
0.272                    0.99791       -4.538378
0.276                   0.997929       -4.603645
0.28                   0.9979507       -4.669024
0.284                   0.997975       -4.734524
0.288                  0.9980018       -4.800155
0.292                  0.9980311       -4.865923
0.296                  0.9980625       -4.931839
0.3                    0.9980964       -4.997909
0.304                  0.9981325        -5.06414
0.308                  0.9981707       -5.130539
0.312                  0.9982109       -5.197115
0.316                  0.9982529       -5.263875
0.32                   0.9982968       -5.330823
0.324                  0.9983423       -5.397966
0.328                  0.9983894        -5.46531
0.332                   0.998438       -5.532862
0.336                  0.9984878       -5.600624
0.34                   0.9985388       -5.668603
0.344                  0.9985908       -5.736803
0.348                  0.9986437       -5.805226
0.352                  0.9986974       -5.873878
0.356                  0.9987518       -5.942761
0.36                   0.9988065       -6.011878
0.364                  0.9988616       -6.081231
0.368                  0.9989169       -6.150822
0.372                  0.9989722       -6.220652
0.376                  0.9990274       -6.290724
0.38                   0.9990823       -6.361036
0.384                  0.9991368       -6.431589
0.388                  0.9991908       -6.502384
0.392                  0.9992441       -6.573419
0.396                  0.9992965       -6.644692
0.4                    0.9993478       -6.716204
0.404                  0.9993982       -6.787953
0.408                   0.999447       -6.859934
0.412                  0.9994947       -6.932146
0.416                  0.9995407       -7.004586
0.42                    0.999585       -7.077252
0.424                  0.9996277       -7.150136
0.428                  0.9996683       -7.223237
0.432                  0.9997069       -7.296551
0.436                  0.9997434        -7.37007
0.44                   0.9997775       -7.443794
0.444                  0.9998094       -7.517712
0.448                  0.9998388       -7.591821
0.452                  0.9998656       -7.666115
0.456                  0.9998899       -7.740587
0.46                   0.9999115       -7.815232
0.464                  0.9999303       -7.890041
0.468                  0.9999463       -7.965009
0.472                  0.9999594       -8.040129
0.476                  0.9999695       -8.115393
0.48                   0.9999765       -8.190795
0.484                  0.9999808       -8.266325
0.488                  0.9999819       -8.341977
0.492                  0.9999801       -8.417743
0.496                  0.9999751       -8.493617
0.5                     0.999967        -8.56959
0.504                  0.9999559       -8.645654
0.508                  0.9999417       -8.721803
0.512                  0.9999246       -8.798027
0.516                  0.9999043        -8.87432
0.52                   0.9998811       -8.950675
0.524                   0.999855       -9.027084
0.528                   0.999826       -9.103539
0.532                  0.9997942       -9.180035
0.536                  0.9997597       -9.256562
0.54                   0.9997224       -9.333117
0.544                  0.9996825       -9.409692
0.548                  0.9996401        -9.48628
0.552                  0.9995952       -9.562875
0.556                   0.999548       -9.639474
0.56                   0.9994986       -9.716066
0.564                   0.999447       -9.792653
0.568                  0.9993935       -9.869225
0.572                  0.9993382       -9.945779
0.576                  0.9992808       -10.02231
0.58                    0.999222       -10.09882
0.584                  0.9991616        -10.1753
0.588                  0.9990999       -10.25174
0.592                  0.9990371       -10.32816
0.596                   0.998973       -10.40453
0.6                    0.9989081       -10.48087
0.604                  0.9988424       -10.55717
0.608                   0.998776       -10.63343
0.612                  0.9987092       -10.70965
0.616                   0.998642       -10.78583
0.62                   0.9985747       -10.86197
0.624                  0.9985074       -10.93808
0.628                  0.9984402       -11.01414
0.632                  0.9983735       -11.09017
0.636                  0.9983071       -11.16617
0.64                   0.9982413       -11.24214
0.644                  0.9981763       -11.31809
0.648                  0.9981122       -11.39401
0.652                  0.9980493       -11.46992
0.656                  0.9979876       -11.54581
0.66                   0.9979273        -11.6217
0.664                  0.9978685       -11.69759
0.668                  0.9978113       -11.77348
0.672                  0.9977559       -11.84939
0.676                  0.9977023       -11.92531
0.68                   0.9976508       -12.00126
0.684                  0.9976016       -12.07724
0.688                  0.9975546       -12.15327
0.692                  0.9975098       -12.22934
0.696                  0.9974676       -12.30548
0.7                    0.9974279       -12.38169
0.704                   0.997391       -12.45797
0.708                  0.9973567       -12.53434
0.712                  0.9973252       -12.61081
0.716                  0.9972965       -12.68739
0.72                   0.9972709       -12.76409
0.724                  0.9972481       -12.84091
0.728                  0.9972285       -12.91788
0.732                  0.9972118         -12.995
0.736                  0.9971982       -13.07228
0.74                   0.9971877       -13.14973
0.744                  0.9971804       -13.22737
0.748                  0.9971759       -13.30521
0.752                  0.9971747       -13.38326
0.756                  0.9971765       -13.46152
0.76                   0.9971813       -13.54001
0.764                  0.9971893       -13.61875
0.768                     0.9972       -13.69774
0.772                  0.9972137       -13.77699
0.776                  0.9972303       -13.85652
0.78                   0.9972495       -13.93634
0.784                  0.9972716       -14.01645
0.788                  0.9972962       -14.09687
0.792                  0.9973234        -14.1776
0.796                  0.9973529       -14.25867
0.8                    0.9973848       -14.34007
0.804                  0.9974187       -14.42182
0.808                  0.9974549       -14.50392
0.812                  0.9974929       -14.58639
0.816                  0.9975327       -14.66923
0.82                   0.9975742       -14.75246
0.824                  0.9976173       -14.83607
0.828                  0.9976616       -14.92009
0.832                  0.9977071        -15.0045
0.836                  0.9977537       -15.08932
0.84                   0.9978011       -15.17456
0.844                  0.9978493       -15.26023
0.848                  0.9978979       -15.34632
0.852                  0.9979469       -15.43284
0.856                  0.9979961       -15.51979
0.86                   0.9980453       -15.60719
0.864                  0.9980943       -15.69503
0.868                  0.9981428       -15.78332
0.872                  0.9981909       -15.87205
0.876                  0.9982381       -15.96124
0.88                   0.9982843       -16.05087
0.884                  0.9983295       -16.14096
0.888                  0.9983734       -16.23149
0.892                  0.9984157       -16.32249
0.896                  0.9984564       -16.41392
0.9                    0.9984953       -16.50582
0.904                   0.998532       -16.59816
0.908                  0.9985665       -16.69094
0.912                  0.9985988       -16.78417
0.916                  0.9986285       -16.87783
0.92                   0.9986554       -16.97193
0.924                  0.9986795       -17.06647
0.928                  0.9987006       -17.16143
0.932                  0.9987186       -17.25682
0.936                  0.9987332       -17.35262
0.94                   0.9987444       -17.44884
0.944                  0.9987521       -17.54546
0.948                  0.9987562       -17.64248
0.952                  0.9987564        -17.7399
0.956                  0.9987527        -17.8377
0.96                   0.9987451       -17.93588
0.964                  0.9987334       -18.03444
0.968                  0.9987176       -18.13336
0.972                  0.9986975       -18.23264
0.976                  0.9986733       -18.33226
0.98                   0.9986447       -18.43223
0.984                  0.9986116       -18.53254
0.988                  0.9985743       -18.63316
0.992                  0.9985325        -18.7341
0.996                  0.9984864       -18.83535
1                      0.9984356       -18.93691
1.004                  0.9983806       -19.03875
1.008                  0.9983211       -19.14088
1.012                  0.9982572       -19.24328
1.016                  0.9981889       -19.34595
1.02                   0.9981163        -19.4489
1.024                  0.9980396       -19.55206
1.028                  0.9979585        -19.6555
1.032                  0.9978734       -19.75915
1.036                  0.9977843       -19.86308
1.04                   0.9976912       -19.96717
1.044                  0.9975942       -20.07151
1.048                  0.9974934       -20.17607
1.052                  0.9973891       -20.28081
1.056                  0.9972813       -20.38578
1.06                   0.9971701       -20.49091
1.064                  0.9970556       -20.59626
1.068                  0.9969381       -20.70177
1.072                  0.9968175       -20.80748
1.076                  0.9966943       -20.91337
1.08                   0.9965684        -21.0194
1.084                  0.9964401       -21.12568
1.088                  0.9963096        -21.2321
1.092                  0.9961769       -21.33865
1.096                  0.9960424       -21.44542
1.1                     0.995906       -21.55235
1.104                  0.9957682       -21.65942
1.108                   0.995629       -21.76674
1.112                  0.9954887       -21.87419
1.116                  0.9953475        -21.9818
1.12                   0.9952054       -22.08961
1.124                  0.9950628       -22.19761
1.128                  0.9949199       -22.30581
1.132                  0.9947767        -22.4142
1.136                  0.9946337        -22.5228
1.14                   0.9944908        -22.6316
1.144                  0.9943484       -22.74063
1.148                  0.9942065       -22.84988
1.152                  0.9940657       -22.95936
1.156                  0.9939256       -23.06909
1.16                   0.9937867       -23.17907
1.164                  0.9936492       -23.28932
1.168                  0.9935131       -23.39984
1.172                  0.9933788       -23.51066
1.176                  0.9932461       -23.62177
1.18                   0.9931155        -23.7332
1.184                  0.9929869       -23.84495
1.188                  0.9928606       -23.95705
1.192                  0.9927366        -24.0695
1.196                   0.992615       -24.18233
1.2                    0.9924961       -24.29554
1.204                  0.9923798       -24.40915
1.208                  0.9922662       -24.52319
1.212                  0.9921554       -24.63767
1.216                  0.9920475        -24.7526
1.22                   0.9919426         -24.868
1.224                  0.9918406       -24.98389
1.228                  0.9917417       -25.10029
1.232                  0.9916457       -25.21723
1.236                  0.9915528        -25.3347
1.24                   0.9914629       -25.45275
1.244                   0.991376       -25.57138
1.248                  0.9912921       -25.69061
1.252                  0.9912111       -25.81046
1.256                   0.991133       -25.93096
1.26                   0.9910576       -26.05213
1.264                  0.9909849       -26.17397
1.268                   0.990915       -26.29652
1.272                  0.9908474       -26.41979
1.276                  0.9907823        -26.5438
1.28                   0.9907195       -26.66857
1.284                  0.9906587       -26.79413
1.288                     0.9906       -26.92047
1.292                   0.990543       -27.04764
1.296                  0.9904876       -27.17563
1.3                    0.9904337       -27.30448
1.304                  0.9903809        -27.4342
1.308                  0.9903292       -27.56481
1.312                  0.9902783       -27.69631
1.316                   0.990228       -27.82874
1.32                   0.9901779       -27.96211
1.324                   0.990128       -28.09643
1.328                  0.9900778       -28.23171
1.332                  0.9900271       -28.36798
1.336                  0.9899758       -28.50523
1.34                   0.9899233        -28.6435
1.344                  0.9898694       -28.78279
1.348                  0.9898141       -28.92311
1.352                  0.9897569       -29.06448
1.356                  0.9896976        -29.2069
1.36                   0.9896355       -29.35038
1.364                  0.9895707       -29.49494
1.368                  0.9895027       -29.64059
1.372                  0.9894314       -29.78733
1.376                  0.9893562       -29.93516
1.38                    0.989277       -30.08411
1.384                  0.9891933       -30.23417
1.388                  0.9891048       -30.38535
1.392                  0.9890114       -30.53765
1.396                  0.9889124       -30.69108
1.4                    0.9888079       -30.84564
1.404                  0.9886974       -31.00133
1.408                  0.9885806       -31.15817
1.412                  0.9884571       -31.31614
1.416                  0.9883267       -31.47525
1.42                    0.988189       -31.63551
1.424                  0.9880439        -31.7969
1.428                   0.987891       -31.95944
1.432                  0.9877301       -32.12311
1.436                  0.9875609       -32.28793
1.44                   0.9873829       -32.45388
1.444                  0.9871962       -32.62096
1.448                  0.9870004       -32.78918
1.452                  0.9867954       -32.95852
1.456                  0.9865808       -33.12899
1.46                   0.9863564       -33.30058
1.464                  0.9861222       -33.47328
1.468                  0.9858778        -33.6471
1.472                  0.9856231       -33.82203
1.476                  0.9853579       -33.99805
1.48                    0.985082       -34.17518
1.484                  0.9847955        -34.3534
1.488                   0.984498        -34.5327
1.492                  0.9841896       -34.71309
1.496                  0.9838701       -34.89456
1.5                    0.9835393        -35.0771
1.504                  0.9831974        -35.2607
1.508                   0.982844       -35.44536
1.512                  0.9824793       -35.63109
1.516                  0.9821031       -35.81787
1.52                   0.9817156       -36.00571
1.524                  0.9813167       -36.19458
1.528                  0.9809061        -36.3845
1.532                  0.9804843       -36.57546
1.536                   0.980051       -36.76746
1.54                   0.9796065       -36.96049
1.544                  0.9791505       -37.15456
1.548                  0.9786833       -37.34966
1.552                   0.978205        -37.5458
1.556                  0.9777156       -37.74298
1.56                   0.9772152       -37.94119
1.564                  0.9767039       -38.14044
1.568                  0.9761819       -38.34073
1.572                  0.9756493       -38.54207
1.576                  0.9751062       -38.74446
1.58                   0.9745527       -38.94791
1.584                  0.9739889       -39.15241
1.588                  0.9734153       -39.35799
1.592                  0.9728315       -39.56466
1.596                  0.9722381        -39.7724
1.6                    0.9716352       -39.98126
1.604                  0.9710228       -40.19123
1.608                  0.9704011       -40.40233
1.612                  0.9697705       -40.61456
1.616                   0.969131       -40.82796
1.62                   0.9684827       -41.04254
1.624                  0.9678259        -41.2583
1.628                  0.9671608       -41.47528
1.632                  0.9664873        -41.6935
1.636                  0.9658059       -41.91297
1.64                   0.9651167       -42.13372
1.644                  0.9644197       -42.35579
1.648                  0.9637151       -42.57918
1.652                  0.9630031       -42.80394
1.656                  0.9622837       -43.03009
1.66                   0.9615572       -43.25765
1.664                  0.9608235       -43.48667
1.668                  0.9600829       -43.71718
1.672                  0.9593352       -43.94921
1.676                  0.9585809       -44.18279
1.68                   0.9578196       -44.41798
1.684                  0.9570516       -44.65479
1.688                  0.9562767       -44.89327
1.692                  0.9554953       -45.13347
1.696                  0.9547069       -45.37543
1.7                    0.9539118       -45.61918
1.704                  0.9531098       -45.86478
1.708                  0.9523008       -46.11228
1.712                  0.9514847       -46.36172
1.716                  0.9506616       -46.61313
1.72                   0.9498312       -46.86658
1.724                  0.9489931       -47.12212
1.728                  0.9481474        -47.3798
1.732                  0.9472936       -47.63967
1.736                  0.9464319       -47.90177
1.74                   0.9455616       -48.16618
1.744                  0.9446826       -48.43293
1.748                  0.9437945       -48.70208
1.752                  0.9428969       -48.97371
1.756                  0.9419896       -49.24784
1.76                   0.9410721       -49.52455
1.764                  0.9401438        -49.8039
1.768                  0.9392044       -50.08593
1.772                  0.9382533       -50.37071
1.776                  0.9372901       -50.65829
1.78                   0.9363142       -50.94875
1.784                  0.9353249       -51.24214
1.788                  0.9343216       -51.53849
1.792                  0.9333039       -51.83791
1.796                  0.9322709       -52.14042
1.8                    0.9312218       -52.44609
1.804                  0.9301561       -52.75499
1.808                  0.9290732       -53.06716
1.812                  0.9279717       -53.38269
1.816                  0.9268516       -53.70161
1.82                   0.9257113       -54.02398
1.824                  0.9245505       -54.34987
1.828                  0.9233682       -54.67934
1.832                  0.9221632       -55.01244
1.836                  0.9209349       -55.34923
1.84                   0.9196823       -55.68977
1.844                  0.9184042        -56.0341
1.848                  0.9170999       -56.38229
1.852                  0.9157682        -56.7344
1.856                  0.9144082       -57.09047
1.86                   0.9130187       -57.45056
1.864                  0.9115989       -57.81473
1.868                  0.9101474       -58.18303
1.872                  0.9086634       -58.55549
1.876                  0.9071457       -58.93219
1.88                    0.905593       -59.31316
1.884                  0.9040043       -59.69848
1.888                  0.9023787       -60.08816
1.892                  0.9007149       -60.48226
1.896                  0.8990115       -60.88084
1.9                    0.8972677       -61.28394
1.904                  0.8954821       -61.69162
1.908                  0.8936538       -62.10387
1.912                  0.8917815        -62.5208
1.916                  0.8898639       -62.94242
1.92                      0.8879       -63.36878
1.924                  0.8858887       -63.79992
1.928                  0.8838288       -64.23589
1.932                  0.8817192       -64.67671
1.936                  0.8795586       -65.12245
1.94                   0.8773461        -65.5731
1.944                  0.8750804       -66.02876
1.948                  0.8727604       -66.48944
1.952                  0.8703853       -66.95518
1.956                  0.8679538         -67.426
1.96                   0.8654648       -67.90197
1.964                  0.8629173        -68.3831
1.968                  0.8603105       -68.86944
1.972                   0.857643       -69.36103
1.976                  0.8549141        -69.8579
1.98                   0.8521227       -70.36008
1.984                  0.8492682       -70.86762
1.988                  0.8463493       -71.38054
1.992                  0.8433652        -71.8989
1.996                  0.8403152       -72.42272
2                      0.8371984       -72.95203
2.004                   0.834014       -73.48689
2.008                  0.8307614       -74.02732
2.012                  0.8274396       -74.57337
2.016                  0.8240481       -75.12507
2.02                   0.8205862       -75.68247
2.024                  0.8170533       -76.24558
2.028                  0.8134488       -76.81449
2.032                  0.8097722        -77.3892
2.036                  0.8060229       -77.96979
2.04                   0.8022005       -78.55628
2.044                  0.7983047       -79.14872
2.048                   0.794335       -79.74717
2.052                  0.7902912       -80.35167
2.056                  0.7861728       -80.96226
2.06                   0.7819797       -81.57902
2.064                  0.7777116       -82.20199
2.068                  0.7733687       -82.83123
2.072                  0.7689505       -83.46681
2.076                  0.7644572       -84.10878
2.08                   0.7598885       -84.75719
2.084                  0.7552449       -85.41215
2.088                  0.7505262        -86.0737
2.092                  0.7457328       -86.74192
2.096                  0.7408646        -87.4169
2.1                    0.7359221       -88.09871
2.104                  0.7309055       -88.78744
2.108                  0.7258154       -89.48319
2.112                   0.720652       -90.18605
2.116                   0.715416       -90.89608
2.12                   0.7101077       -91.61345
2.124                   0.704728       -92.33824
2.128                  0.6992773       -93.07054
2.132                  0.6937566        -93.8105
2.136                  0.6881665       -94.55824
2.14                    0.682508       -95.31391
2.144                   0.676782        -96.0776
2.148                  0.6709893        -96.8495
2.152                  0.6651312       -97.62976
2.156                  0.6592086       -98.41853
2.16                   0.6532229       -99.21599
2.164                  0.6471752       -100.0223
2.168                  0.6410669       -100.8377
2.172                  0.6348993       -101.6623
2.176                   0.628674       -102.4964
2.18                   0.6223924       -103.3402
2.184                  0.6160562       -104.1939
2.188                  0.6096671       -105.0577
2.192                  0.6032267        -105.932
2.196                   0.596737       -106.8169
2.2                    0.5901998       -107.7127
2.204                  0.5836172       -108.6199
2.208                  0.5769912       -109.5386
2.212                   0.570324       -110.4692
2.216                  0.5636178        -111.412
2.22                    0.556875       -112.3674
2.224                  0.5500981       -113.3358
2.228                  0.5432896       -114.3176
2.232                  0.5364519       -115.3132
2.236                   0.529588        -116.323
2.24                   0.5227006       -117.3475
2.244                  0.5157926       -118.3872
2.248                  0.5088672       -119.4427
2.252                  0.5019273       -120.5143
2.256                  0.4949764       -121.6028
2.26                   0.4880179       -122.7086
2.264                  0.4810552       -123.8324
2.268                   0.474092       -124.9748
2.272                  0.4671321       -126.1366
2.276                  0.4601795       -127.3184
2.28                   0.4532382       -128.5209
2.284                  0.4463125       -129.7449
2.288                  0.4394068       -130.9913
2.292                  0.4325257       -132.2607
2.296                  0.4256737       -133.5542
2.3                    0.4188561       -134.8726
2.304                  0.4120778       -136.2168
2.308                  0.4053441       -137.5877
2.312                  0.3986606       -138.9864
2.316                   0.392033       -140.4139
2.32                   0.3854673       -141.8711
2.324                  0.3789694       -143.3591
2.328                  0.3725459       -144.8789
2.332                  0.3662035       -146.4318
2.336                  0.3599489       -148.0186
2.34                   0.3537892       -149.6404
2.344                  0.3477319       -151.2984
2.348                  0.3417843       -152.9935
2.352                  0.3359544       -154.7266