! TOUCHSTONE file generated by CST MICROWAVE STUDIO
! Date and time: Tue Jun 14 14:10:45 2022
! Project name: AppElm_antenne_patch_FR4.cst
! Parameters = {L=45; W=58.5; e=0.035; h=1.6; lambda=0.190476; ls=120; w0=2.54; w1=0.847; ws=96; y0=18; y1=23.8}
! Header version: 2018
! Port assignment regex: !\s*Touchstone port\s*([0-9]+)\s*=\s*(CST MWS port|CST DS port)\s*([0-9]+|Zmin|Zmax)\s*\(\"(.*)\"\)(\s*mode\s*([0-9]+))?.*
! Touchstone port assignment:
! Touchstone port 1 = CST MWS port 1 ("")
# GHz S MA R 50
0                      0.9878414              -0
0.004                  0.9885691       -9.980967
0.008                  0.9906512       -19.86863
0.012                  0.9938005       -29.57453
0.016                  0.9975877       -39.01903
0.02                    1.001507       -48.13396
0.024                   1.005047       -56.86375
0.028                   1.007765       -65.16537
0.032                   1.009339       -73.00765
0.036                   1.009611        -80.3703
0.04                    1.008601       -87.24333
0.044                   1.006501       -93.62674
0.048                   1.003644       -99.53058
0.052                   1.000457       -104.9751
0.056                  0.9973985       -109.9904
0.06                   0.9948945       -114.6159
0.064                  0.9932749       -118.8978
0.068                  0.9927277        -122.886
0.072                  0.9932741       -126.6307
0.076                  0.9947717       -130.1778
0.08                   0.9969435       -133.5654
0.084                  0.9994257       -136.8221
0.088                   1.001828       -139.9654
0.092                   1.003793       -143.0027
0.096                   1.005049       -145.9333
0.1                     1.005444       -148.7507
0.104                   1.004962        -151.446
0.108                   1.003724       -154.0108
0.112                   1.001958       -156.4396
0.116                   0.999968       -158.7327
0.12                   0.9980784       -160.8966
0.124                  0.9965871       -162.9444
0.128                  0.9957168       -164.8948
0.132                  0.9955821       -166.7695
0.136                  0.9961747        -168.591
0.14                   0.9973682       -170.3791
0.144                  0.9989445       -172.1488
0.148                   1.000632       -173.9088
0.152                   1.002153       -175.6608
0.156                   1.003266       -177.4001
0.16                    1.003806       -179.1175
0.164                   1.003705        179.1991
0.168                   1.003003         177.562
0.172                   1.001833        175.9814
0.176                   1.000404        174.4636
0.18                   0.9989577        173.0097
0.184                  0.9977359        171.6152
0.188                  0.9969355        170.2704
0.192                   0.996678        168.9621
0.196                  0.9969913        167.6752
0.2                    0.9978068        166.3957
0.204                  0.9989735        165.1124
0.208                   1.000286        163.8188
0.212                    1.00152        162.5135
0.216                    1.00247        161.2006
0.22                    1.002985        159.8879
0.224                   1.002987        158.5863
0.228                   1.002488        157.3071
0.232                   1.001581        156.0604
0.236                   1.000427        154.8532
0.24                   0.9992251        153.6884
0.244                  0.9981793        152.5637
0.248                   0.997464        151.4726
0.252                  0.9971945         150.405
0.256                  0.9974084        149.3491
0.26                   0.9980602        148.2933
0.264                  0.9990306         147.228
0.268                   1.000148        146.1474
0.272                   1.001219        145.0503
0.276                   1.002062        143.9399
0.28                    1.002537        142.8233
0.284                   1.002568          141.71
0.288                   1.002156        140.6104
0.292                   1.001377         139.534
0.296                   1.000369        138.4876
0.3                    0.9993047        137.4743
0.304                  0.9983691        136.4929
0.308                  0.9977207        135.5381
0.312                  0.9974681        134.6012
0.316                  0.9976508        133.6718
0.32                   0.9982318        132.7395
0.324                   0.999107        131.7958
0.328                   1.000122        130.8353
0.332                     1.0011        129.8567
0.336                   1.001875        128.8631
0.34                    1.002313         127.861
0.344                   1.002343        126.8591
0.348                   1.001964        125.8674
0.352                   1.001242        124.8947
0.356                   1.000305        123.9476
0.36                   0.9993164        123.0293
0.364                  0.9984466        122.1388
0.368                  0.9978461        121.2712
0.372                  0.9976182        120.4185
0.376                  0.9978001         119.571
0.38                   0.9983579         118.719
0.384                  0.9991927        117.8543
0.388                   1.000158         116.972
0.392                   1.001085         116.071
0.396                   1.001814        115.1542
0.4                      1.00222         114.228
0.404                   1.002234        113.3008
0.408                   1.001854        112.3823
0.412                   1.001148         111.481
0.416                   1.000239        110.6033
0.42                    0.999286        109.7522
0.424                  0.9984547        108.9268
0.428                  0.9978902        108.1221
0.432                  0.9976911        107.3304
0.436                  0.9978915        106.5422
0.44                   0.9984559         105.748
0.444                  0.9992848        104.9401
0.448                   1.000233        104.1137
0.452                   1.001134         103.268
0.456                   1.001832         102.406
0.46                    1.002204        101.5342
0.464                   1.002187        100.6611
0.468                   1.001782        99.79626
0.472                   1.001061        98.94811
0.476                   1.000147        98.12292
0.48                    0.999201        97.32339
0.484                  0.9983875        96.54834
0.488                  0.9978495        95.79276
0.492                  0.9976816        95.04865
0.496                  0.9979135        94.30651
0.5                    0.9985047        93.55691
0.504                  0.9993512        92.79223
0.508                   1.000304        92.00804
0.512                   1.001196        91.20376
0.516                   1.001871        90.38278
0.52                    1.002208        89.55182
0.524                    1.00215        88.71981
0.528                   1.001703        87.89627
0.532                   1.000944        87.08968
0.536                   1.000005        86.30613
0.54                   0.9990493        85.54809
0.544                  0.9982447        84.81397
0.548                  0.9977332        84.09835
0.552                  0.9976059        83.39286
0.556                  0.9978866        82.68771
0.56                   0.9985267        81.97337
0.564                  0.9994143        81.24232
0.568                   1.000393        80.49035
0.572                   1.001291        79.71732
0.576                    1.00195        78.92711
0.58                    1.002253        78.12696
0.584                   1.002144        77.32618
0.588                    1.00164         76.5346
0.592                   1.000827        75.76085
0.596                  0.9998461        75.01079
0.6                    0.9988682        74.28657
0.604                  0.9980658         73.5861
0.608                  0.9975814        72.90334
0.612                  0.9975026         72.2294
0.616                  0.9978451        71.55399
0.62                   0.9985503        70.86737
0.624                  0.9994948        70.16206
0.628                   1.000513        69.43417
0.632                   1.001424        68.68406
0.636                   1.002066        67.91629
0.64                    1.002326        67.13877
0.644                   1.002153         66.3614
0.648                   1.001574        65.59441
0.652                   1.000688        64.84657
0.656                  0.9996487        64.12362
0.66                   0.9986368        63.42722
0.664                  0.9978319        62.75465
0.668                  0.9973777        62.09911
0.672                  0.9973571        61.45089
0.676                  0.9977768        60.79918
0.68                   0.9985646        60.13389
0.684                  0.9995831        59.44757
0.688                   1.000653        58.73668
0.692                   1.001584        58.00222
0.696                   1.002212        57.24959
0.7                     1.002422        56.48751
0.704                   1.002173        55.72666
0.708                   1.001505        54.97776
0.712                   1.000531        54.24974
0.716                  0.9994203        53.54819
0.72                   0.9983671        52.87424
0.724                  0.9975586        52.22434
0.728                  0.9971405        51.59073
0.732                  0.9971903        50.96281
0.736                  0.9977025        50.32901
0.74                   0.9985896        49.67886
0.744                   0.999696        49.00495
0.748                   1.000827        48.30421
0.752                    1.00178        47.57842
0.756                   1.002387        46.83393
0.76                    1.002534        46.08053
0.764                   1.002191        45.32976
0.768                   1.001411        44.59295
0.772                   1.000328        43.87928
0.776                  0.9991281        43.19407
0.78                   0.9980218        42.53784
0.784                  0.9972057        41.90603
0.788                  0.9968275        41.28976
0.792                  0.9969577        40.67731
0.796                  0.9975775        40.05623
0.8                    0.9985796        39.41564
0.804                   0.999788        38.74818
0.808                   1.000989        38.05129
0.812                   1.001967        37.32772
0.816                   1.002548        36.58497
0.82                    1.002621        35.83402
0.824                   1.002167        35.08747
0.828                   1.001259        34.35735
0.832                   1.000051        33.65305
0.836                  0.9987505        32.97963
0.84                   0.9975876         32.3368
0.844                  0.9967696        31.71883
0.848                  0.9964454        31.11548
0.852                  0.9966777        30.51373
0.856                    0.99743        29.90013
0.86                   0.9985729        29.26331
0.864                  0.9999059        28.59597
0.868                   1.001193        27.89624
0.872                   1.002204        27.16795
0.876                   1.002756           26.42
0.88                    1.002744        25.66478
0.884                   1.002163        24.91609
0.888                   1.001106        24.18677
0.892                  0.9997523        23.48649
0.896                  0.9983369        22.81995
0.9                    0.9971095        22.18592
0.904                    0.99629        21.57731
0.908                  0.9960295        20.98226
0.912                  0.9963803        20.38623
0.916                  0.9972861        19.77466
0.92                   0.9985908        19.13557
0.924                   1.000065         18.4618
0.928                   1.001447        17.75229
0.932                    1.00249        17.01218
0.936                   1.003003        16.25198
0.94                    1.002886        15.48572
0.944                    1.00215        14.72862
0.948                   1.000913        13.99445
0.952                  0.9993862        13.29319
0.956                  0.9978332        12.62911
0.96                   0.9965288        11.99988
0.964                  0.9957078        11.39676
0.968                  0.9955228        10.80599
0.972                  0.9960146        10.21125
0.976                   0.997103        9.596613
0.98                   0.9986003        8.949442
0.984                   1.000243        8.262741
0.988                   1.001741        7.536357
0.992                   1.002824        6.777002
0.996                   1.003294        5.997064
1                       1.003057        5.212514
1.004                   1.002142        4.440219
1.008                   1.000697        3.695084
1.012                  0.9989687        2.987434
1.016                  0.9972564        2.321063
1.02                    0.995864        1.692323
1.024                   0.995044        1.090528
1.028                  0.9949513       0.4996873
1.032                  0.9956123     -0.09865862
1.036                  0.9969188      -0.7220637
1.04                   0.9986454       -1.383936
1.044                   1.000489       -2.091097
1.048                   1.002122       -2.842585
1.052                   1.003251       -3.629857
1.056                   1.003666       -4.438267
1.06                    1.003279       -5.249533
1.064                   1.002142       -6.044779
1.068                   1.000439       -6.807717
1.072                  0.9984582       -7.527528
1.076                  0.9965421       -8.200972
1.08                   0.9950308       -8.833173
1.084                  0.9941989       -9.437181
1.088                  0.9942051       -10.03171
1.092                    0.99506       -10.63779
1.096                   0.996622       -11.27499
1.1                    0.9986209       -11.95779
1.104                   1.000705       -12.69278
1.108                   1.002503       -13.47773
1.112                   1.003689       -14.30191
1.116                    1.00404       -15.14804
1.12                    1.003475       -15.99493
1.124                    1.00207        -16.8213
1.128                   1.000053       -17.60907
1.132                   0.997763       -18.34674
1.136                  0.9955965        -19.0316
1.14                   0.9939388       -19.67065
1.144                  0.9930936       -20.27976
1.148                  0.9932259       -20.88101
1.152                  0.9943282       -21.49877
1.156                  0.9962186       -22.15519
1.16                   0.9985712       -22.86606
1.164                   1.000974       -23.63794
1.168                   1.002998       -24.46711
1.172                   1.004277       -25.34021
1.176                   1.004568       -26.23655
1.18                    1.003793       -27.13149
1.184                   1.002061       -28.00046
1.188                  0.9996492       -28.82305
1.192                  0.9969614       -29.58664
1.196                  0.9944631       -30.28904
1.2                    0.9925994       -30.93937
1.204                  0.9917141       -31.55703
1.208                  0.9919844        -32.1684
1.212                   0.993383       -32.80219
1.216                  0.9956791         -33.484
1.22                   0.9984766        -34.2316
1.224                   1.001285       -35.05164
1.228                   1.003601       -35.93864
1.232                   1.005002       -36.87599
1.236                   1.005213       -37.83875
1.24                    1.004161       -38.79764
1.244                   1.001986       -39.72374
1.248                  0.9990324       -40.59325
1.252                   0.995788        -41.3918
1.256                  0.9928109       -42.11744
1.26                   0.9906304       -42.78189
1.264                  0.9896505       -43.40909
1.268                  0.9900715       -44.03129
1.272                  0.9918456       -44.68325
1.276                  0.9946812       -45.39562
1.28                   0.9980899        -46.1892
1.284                   1.001473       -47.07122
1.288                   1.004224       -48.03424
1.292                   1.005835       -49.05749
1.296                   1.005981        -50.1104
1.3                     1.004582        -51.1573
1.304                   1.001821       -52.16309
1.308                  0.9981214       -53.09885
1.312                  0.9940882       -53.94708
1.316                  0.9904103       -54.70565
1.32                   0.9877423       -55.38932
1.324                  0.9865833       -56.02819
1.328                  0.9871779       -56.66296
1.332                  0.9894605       -57.33737
1.336                  0.9930588       -58.08992
1.34                   0.9973545        -58.9465
1.344                   1.001591       -59.91585
1.348                   1.005005       -60.98825
1.352                   1.006953       -62.13744
1.356                   1.007024       -63.32484
1.36                    1.005111       -64.50541
1.364                   1.001438       -65.63439
1.368                  0.9965418       -66.67433
1.372                  0.9911962       -67.60186
1.376                  0.9862938       -68.41304
1.38                   0.9826951       -69.12611
1.384                  0.9810686        -69.7802
1.388                  0.9817544       -70.42912
1.392                  0.9846832       -71.13173
1.396                  0.9893744       -71.94026
1.4                    0.9950137       -72.89037
1.404                   1.000593       -73.99481
1.408                   1.005081       -75.24181
1.412                   1.007599       -76.59749
1.416                   1.007561       -78.01129
1.42                     1.00478       -79.42318
1.424                  0.9995164       -80.77197
1.428                  0.9924609       -82.00439
1.432                   0.984656       -83.08451
1.436                  0.9773487       -84.00224
1.44                   0.9717868       -84.77921
1.444                  0.9689865       -85.46898
1.448                  0.9695196       -86.14996
1.452                  0.9733687       -86.91119
1.456                  0.9798988       -87.83464
1.46                   0.9879522       -88.97912
1.464                  0.9960432       -90.37008
1.468                   1.002605       -91.99695
1.472                   1.006236        -93.8164
1.476                    1.00592       -95.75959
1.48                    1.001188       -97.74097
1.484                  0.9922165       -99.66825
1.488                  0.9798621       -101.4539
1.492                  0.9656001       -103.0291
1.496                   0.951368       -104.3597
1.5                      0.93929        -105.463
1.504                  0.9312964        -106.418
1.508                  0.9286952       -107.3638
1.512                  0.9318052       -108.4788
1.516                  0.9397687       -109.9468
1.52                   0.9506121        -111.922
1.524                  0.9615218       -114.5066
1.528                  0.9692291       -117.7451
1.532                  0.9703982       -121.6338
1.536                   0.961944       -126.1359
1.54                   0.9412605       -131.1957
1.544                  0.9063672       -136.7506
1.548                  0.8559891       -142.7386
1.552                  0.7895915        -149.104
1.556                  0.7073729       -155.8009
1.56                   0.6102353       -162.7998
1.564                  0.4997258       -170.1016
1.568                  0.3779648       -177.7819
1.572                  0.2475738        173.8145
1.576                  0.1117721        162.4302
1.58                  0.03155324         9.59686
1.584                  0.1669712       -19.93075
1.588                  0.3010584       -29.44018
1.592                  0.4283306       -37.48248
1.596                  0.5458611       -45.00861
1.6                     0.651221       -52.20637
1.604                  0.7425072       -59.11163
1.608                  0.8184189       -65.71028
1.612                  0.8783245        -71.9653
1.616                  0.9223096       -77.82619
1.62                   0.9511992       -83.23387
1.624                  0.9665499       -88.12486
1.628                  0.9706008       -92.43745
1.632                  0.9661719       -96.12072
1.636                  0.9564896       -99.14761
1.64                   0.9449249       -101.5305
1.644                  0.9346439       -103.3353
1.648                  0.9282068       -104.6862
1.652                  0.9272038       -105.7543
1.656                  0.9320471       -106.7286
1.66                   0.9420019       -107.7786
1.664                  0.9554542       -109.0242
1.668                   0.970319       -110.5219
1.672                  0.9844649       -112.2681
1.676                  0.9960616       -114.2132
1.68                    1.003813       -116.2785
1.684                   1.007079       -118.3722
1.688                     1.0059       -120.4012
1.692                   1.000944       -122.2827
1.696                  0.9933876       -123.9535
1.7                    0.9847372       -125.3783
1.704                  0.9765986       -126.5563
1.708                  0.9704243       -127.5237
1.712                  0.9672724       -128.3484
1.716                  0.9676321       -129.1185
1.72                   0.9713571       -129.9247
1.724                  0.9777263       -130.8426
1.728                  0.9856133       -131.9195
1.732                  0.9937117       -133.1697
1.736                   1.000767        -134.576
1.74                    1.005771       -136.0966
1.744                   1.008096       -137.6742
1.748                   1.007558       -139.2452
1.752                   1.004427       -140.7488
1.756                  0.9993612       -142.1349
1.76                   0.9933055       -143.3712
1.764                  0.9873344       -144.4486
1.768                  0.9824803        -145.383
1.772                  0.9795604       -146.2136
1.776                  0.9790376       -146.9962
1.78                   0.9809475       -147.7921
1.784                  0.9849082        -148.657
1.788                  0.9902048       -149.6305
1.792                  0.9959334       -150.7306
1.796                   1.001163       -151.9522
1.8                     1.005087       -153.2705
1.804                   1.007145       -154.6463
1.808                   1.007095       -156.0329
1.812                   1.005036        -157.383
1.816                   1.001382       -158.6556
1.82                   0.9967924       -159.8219
1.824                   0.992065       -160.8697
1.828                  0.9880033        -161.806
1.832                  0.9852847        -162.656
1.836                  0.9843445       -163.4589
1.84                   0.9853047       -164.2607
1.844                  0.9879603       -165.1058
1.848                  0.9918262       -166.0287
1.852                  0.9962323       -167.0487
1.856                   1.000444       -168.1672
1.86                    1.003788       -169.3692
1.864                   1.005755       -170.6266
1.868                   1.006073       -171.9035
1.872                   1.004742       -173.1614
1.876                   1.002026       -174.3653
1.88                    0.998406       -175.4887
1.884                  0.9945028        -176.518
1.888                  0.9909742       -177.4544
1.892                  0.9884066       -178.3143
1.896                  0.9872155       -179.1267
1.9                     0.987577        -179.928
1.904                  0.9894007         179.245
1.908                  0.9923524        178.3611
1.912                  0.9959186        177.4005
1.916                  0.9995005        176.3573
1.92                    1.002514        175.2399
1.924                   1.004487        174.0684
1.928                   1.005126        172.8714
1.932                   1.004359         171.681
1.936                   1.002341         170.528
1.94                   0.9994246        169.4374
1.944                  0.9961051        168.4242
1.948                  0.9929369        167.4915
1.952                   0.990444        166.6293
1.956                  0.9890317        165.8159
1.96                   0.9889195        165.0223
1.964                  0.9901049        164.2165
1.968                  0.9923684          163.37
1.972                  0.9953152        162.4621
1.976                  0.9984476        161.4836
1.98                    1.001249        160.4373
1.984                    1.00327        159.3375
1.988                   1.004196        158.2066
1.992                   1.003894        157.0721
1.996                   1.002429        155.9616
2                       1.000052        154.8992
2.004                  0.9971589        153.9016
2.008                  0.9942256        152.9756
2.012                  0.9917321        152.1164
2.016                  0.9900834        151.3084
2.02                   0.9895411        150.5281
2.024                  0.9901806        149.7475
2.028                  0.9918794        148.9396
2.032                  0.9943423        148.0827
2.036                  0.9971524        147.1642
2.04                   0.9998446        146.1821
2.044                    1.00198        145.1452
2.048                   1.003217         144.071
2.052                   1.003362        142.9829
2.056                   1.002396        141.9064
2.06                     1.00048        140.8655
2.064                  0.9979213        139.8787
2.068                  0.9951348        138.9565
2.072                  0.9925705        138.0991
2.076                  0.9906419        137.2966
2.08                   0.9896601        136.5299
2.084                  0.9897779        135.7745
2.088                  0.9909671        135.0039
2.092                  0.9930228         134.195
2.096                  0.9955991        133.3314
2.1                    0.9982688        132.4062
2.104                   1.000593        131.4228
2.108                   1.002191        130.3939
2.112                   1.002799        129.3397
2.116                   1.002313        128.2841
2.12                    1.000797        127.2516
2.124                  0.9984845        126.2635
2.128                  0.9957327        125.3346
2.132                  0.9929746        124.4705
2.136                   0.990649        123.6667
2.14                    0.989129        122.9088
2.144                  0.9886591        122.1747
2.148                  0.9893126         121.438
2.152                  0.9909782        120.6731
2.156                  0.9933775        119.8586
2.16                   0.9961112         118.982
2.164                  0.9987236        118.0405
2.168                   1.000777        117.0422
2.172                    1.00192        116.0038
2.176                   1.001941        114.9486
2.18                    1.000803        113.9026
2.184                  0.9986538        112.8909
2.188                   0.995802        111.9339
2.192                  0.9926773        111.0438
2.196                  0.9897633        110.2224
2.2                    0.9875222        109.4601
2.204                  0.9863166        108.7368
2.208                  0.9863465        108.0255
2.212                  0.9876096        107.2957
2.216                   0.989899        106.5198
2.22                   0.9928329        105.6771
2.224                  0.9959164        104.7573
2.228                  0.9986204        103.7624
2.232                   1.000466         102.706
2.236                     1.0011        101.6111
2.24                    1.000352        100.5069
2.244                  0.9982643        99.42448
2.248                  0.9950955        98.39211
2.252                  0.9912857        97.43095
2.256                  0.9873962        96.55113
2.26                   0.9840252        95.74915
2.264                  0.9817088        95.00734
2.268                  0.9808269        94.29588
2.272                  0.9815292        93.57737
2.276                  0.9836997        92.81315
2.28                   0.9869666        91.97015
2.284                  0.9907584        91.02665
2.288                  0.9943944        89.97588
2.292                   0.997192        88.82697
2.296                  0.9985762        87.60347
2.3                    0.9981708        86.33975
2.304                  0.9958638        85.07638
2.308                  0.9918376        83.85426
2.312                  0.9865562        82.70863
2.316                  0.9807118        81.66287
2.32                   0.9751286        80.72326
2.324                  0.9706347        79.87557
2.328                   0.967917        79.08513
2.332                  0.9673882        78.30086
2.336                   0.969091        77.46334
2.34                   0.9726682        76.51537
2.344                  0.9774041        75.41206
2.348                  0.9823325        74.12854
2.352                  0.9863854        72.66341