! TOUCHSTONE file generated by CST MICROWAVE STUDIO
! Date and time: Tue Jun 14 14:10:51 2022
! Project name: AppElm_antenne_patch_FR4.cst
! Parameters = {L=45; W=58.5; e=0.035; h=1.6; lambda=0.190476; ls=120; w0=2.54; w1=0.847; ws=132; y0=18; y1=23.8}
! Header version: 2018
! Port assignment regex: !\s*Touchstone port\s*([0-9]+)\s*=\s*(CST MWS port|CST DS port)\s*([0-9]+|Zmin|Zmax)\s*\(\"(.*)\"\)(\s*mode\s*([0-9]+))?.*
! Touchstone port assignment:
! Touchstone port 1 = CST MWS port 1 ("")
# GHz S MA R 50
0                      0.9874523              -0
0.004                  0.9881935       -9.976905
0.008                  0.9903153       -19.86084
0.012                  0.9935281       -29.56369
0.016                  0.9973996       -39.00609
0.02                    1.001418       -48.12018
0.024                   1.005066       -56.85058
0.028                   1.007891       -65.15441
0.032                   1.009563       -73.00046
0.036                   1.009914       -80.36833
0.04                    1.008953       -87.24774
0.044                   1.006866       -93.63813
0.048                    1.00398        -99.5489
0.052                   1.000724       -104.9995
0.056                  0.9975616       -110.0193
0.06                   0.9949305       -114.6469
0.064                  0.9931759       -118.9281
0.068                  0.9925036       -122.9128
0.072                   0.992953       -126.6515
0.076                  0.9943962       -130.1907
0.08                   0.9965647         -133.57
0.084                  0.9990969       -136.8187
0.088                   1.001596       -139.9555
0.092                   1.003692        -142.989
0.096                   1.005093       -145.9188
0.1                     1.005626       -148.7385
0.104                   1.005257        -151.439
0.108                   1.004087       -154.0109
0.112                   1.002334        -156.448
0.116                   1.000299       -158.7489
0.12                   0.9983119       -160.9191
0.124                  0.9966864       -162.9706
0.128                  0.9956662       -164.9213
0.132                  0.9953898       -166.7928
0.136                  0.9958724       -168.6081
0.14                   0.9970058        -170.388
0.144                  0.9985819       -172.1489
0.148                   1.000329       -173.9007
0.152                    1.00196       -175.6466
0.156                   1.003216       -177.3828
0.16                    1.003908       -179.1006
0.164                   1.003944        179.2123
0.168                    1.00334        177.5686
0.172                   1.002213        175.9797
0.176                   1.000764        174.4533
0.18                   0.9992384         172.992
0.184                    0.99789        171.5924
0.188                  0.9969366        170.2459
0.192                  0.9965259        168.9395
0.196                  0.9967115        167.6579
0.2                    0.9974468        166.3863
0.204                  0.9985945        165.1122
0.208                  0.9999521        163.8273
0.212                   1.001288         162.529
0.216                    1.00238          161.22
0.22                     1.00305        159.9077
0.224                   1.003198        158.6029
0.228                   1.002808        157.3174
0.232                   1.001957        156.0624
0.236                   1.000793        154.8464
0.24                   0.9995187        153.6736
0.244                  0.9983493        152.5433
0.248                  0.9974804          151.45
0.252                  0.9970541        150.3841
0.256                  0.9971353        149.3333
0.26                   0.9977016        148.2853
0.264                  0.9986483        147.2291
0.268                  0.9998085        146.1575
0.272                   1.000981        145.0675
0.276                   1.001967        143.9613
0.28                    1.002602        142.8452
0.284                   1.002783        141.7286
0.288                   1.002484        140.6226
0.292                   1.001761        139.5376
0.296                   1.000743        138.4821
0.3                    0.9996047        137.4606
0.304                  0.9985419        136.4736
0.308                  0.9977362        135.5165
0.312                  0.9973232        134.5812
0.316                  0.9973703        133.6571
0.32                   0.9978649        132.7328
0.324                  0.9987175        131.7985
0.328                  0.9997782         130.847
0.332                   1.000862        129.8756
0.336                   1.001783        128.8861
0.34                    1.002384        127.8842
0.344                   1.002565        126.8789
0.348                   1.002297        125.8804
0.352                   1.001629        124.8989
0.356                   1.000677        123.9426
0.36                   0.9996074        123.0162
0.364                  0.9986047        122.1201
0.368                  0.9978425        121.2506
0.372                  0.9974523           120.4
0.376                  0.9975002        119.5582
0.38                   0.9979762        118.7146
0.384                  0.9987959        117.8595
0.388                  0.9998157        116.9864
0.392                   1.000858        116.0925
0.396                   1.001741        115.1794
0.4                     1.002315         114.253
0.404                    1.00248        113.3218
0.408                    1.00221         112.396
0.412                   1.001551        111.4855
0.416                   1.000619        110.5984
0.42                   0.9995765        109.7392
0.424                  0.9986048        108.9084
0.428                  0.9978735        108.1022
0.432                  0.9975109        107.3131
0.436                  0.9975805        106.5311
0.44                     0.99807        105.7457
0.444                  0.9988934        104.9476
0.448                  0.9999068        104.1303
0.452                   1.000933        103.2913
0.456                   1.001792        102.4325
0.46                    1.002335        101.5598
0.464                   1.002467        100.6819
0.468                   1.002164        99.80915
0.472                   1.001479        98.95141
0.476                   1.000528        98.11652
0.48                   0.9994789        97.30902
0.484                  0.9985133        96.52908
0.488                   0.997801        95.77262
0.492                  0.9974675        95.03189
0.496                   0.997572        94.29673
0.5                    0.9980966        93.55651
0.504                  0.9989495        92.80197
0.508                  0.9999805        92.02684
0.512                   1.001008        91.22895
0.516                   1.001852         90.4106
0.52                    1.002363        89.57805
0.524                   1.002451         88.7405
0.528                   1.002097        87.90845
0.532                   1.001362        87.09192
0.536                   1.000372        86.29871
0.54                   0.9992989        85.53302
0.544                  0.9983316         84.7947
0.548                  0.9976408        84.07909
0.552                  0.9973494        83.37793
0.556                   0.997511        82.68064
0.56                   0.9980984        81.97629
0.564                  0.9990094        81.25564
0.568                   1.000084        80.51257
0.572                   1.001133        79.74542
0.576                   1.001972          78.957
0.58                    1.002451        78.15429
0.584                   1.002485        77.34704
0.588                   1.002064         76.5462
0.592                    1.00126          75.762
0.596                   1.000211        75.00221
0.6                     0.999101         74.2707
0.604                  0.9981244        73.56672
0.608                  0.9974556        72.88492
0.612                  0.9972151        72.21626
0.616                  0.9974479        71.54953
0.62                   0.9981155        70.87347
0.624                  0.9991014        70.17867
0.628                   1.000232        69.45937
0.632                   1.001309        68.71442
0.636                   1.002139        67.94745
0.64                    1.002575        67.16626
0.644                   1.002537         66.3814
0.648                   1.002027        65.60438
0.652                   1.001131        64.84574
0.656                   1.000003        64.11314
0.66                   0.9988409        63.41004
0.664                  0.9978494        62.73492
0.668                   0.997206        62.08151
0.672                   0.997028         61.4398
0.676                  0.9973503        60.79779
0.68                    0.998119        60.14367
0.684                  0.9992002        59.46801
0.688                   1.000404        58.76536
0.692                   1.001516        58.03527
0.696                    1.00234        57.28236
0.7                     1.002727        56.51544
0.704                   1.002605          55.746
0.708                    1.00199        54.98631
0.712                   1.000987        54.24717
0.716                  0.9997675        53.53619
0.72                   0.9985469         52.8562
0.724                  0.9975418        52.20481
0.728                  0.9969331        51.57459
0.732                  0.9968334        50.95434
0.736                  0.9972648        50.33115
0.74                   0.9981546        49.69266
0.744                  0.9993477        49.02932
0.748                   1.000634        48.33615
0.752                   1.001784        47.61361
0.756                   1.002594        46.86748
0.76                    1.002915         46.1078
0.764                   1.002685        45.34722
0.768                   1.001939        44.59877
0.772                   1.000801        43.87367
0.776                  0.9994683        43.17932
0.78                   0.9981743        42.51788
0.784                  0.9971494        41.88582
0.788                  0.9965784        41.27433
0.792                  0.9965674        40.67089
0.796                  0.9971232        40.06144
0.8                     0.998151        39.43299
0.804                  0.9994704        38.77598
0.808                   1.000848        38.08599
0.812                   1.002037        37.36454
0.816                   1.002826        36.61877
0.82                    1.003067         35.8602
0.824                   1.002711        35.10274
0.828                   1.001813        34.36035
0.832                   1.000524         33.6446
0.836                  0.9990673        32.96264
0.84                   0.9976989        32.31575
0.844                  0.9966638        31.69906
0.848                  0.9961503        31.10214
0.852                  0.9962563        30.51085
0.856                  0.9969691         29.9099
0.86                   0.9981675        29.28558
0.864                  0.9996416        28.62836
0.868                   1.001131        27.93454
0.872                    1.00237        27.20692
0.876                   1.003135        26.45425
0.88                    1.003285        25.68975
0.884                   1.002785        24.92882
0.888                   1.001713        24.18643
0.892                   1.000251        23.47456
0.896                  0.9986539            22.8
0.9                    0.9972025        22.16303
0.904                  0.9961579        21.55714
0.908                  0.9957122        20.97005
0.912                  0.9959526        20.38578
0.916                  0.9968438        19.78761
0.92                   0.9982327        19.16112
0.924                  0.9998759        18.49683
0.928                   1.001482        17.79195
0.932                   1.002764        17.05079
0.936                   1.003488        16.28402
0.94                    1.003518        15.50679
0.944                   1.002837         14.7362
0.948                   1.001553        13.98837
0.952                  0.9998836         13.2757
0.956                   0.998118        12.60456
0.96                   0.9965684        11.97396
0.964                  0.9955141        11.37549
0.968                  0.9951502        10.79464
0.972                   0.995551        10.21331
0.976                  0.9966539        9.613095
0.98                   0.9982692        8.978746
0.984                   1.000114        8.300926
0.988                    1.00186         7.57789
0.992                   1.003195        6.815748
0.996                   1.003876        6.027366
1                       1.003771         5.23016
1.004                   1.002886        4.443182
1.008                   1.001363        3.683899
1.012                  0.9994595        2.965167
1.016                  0.9975078        2.292825
1.02                   0.9958538        1.664404
1.024                  0.9947984        1.069252
1.028                  0.9945398        0.490228
1.032                  0.9951364     -0.09328531
1.036                  0.9964929       -0.701586
1.04                    0.998376       -1.350879
1.044                   1.000455       -2.050298
1.048                   1.002361       -2.800302
1.052                   1.003752       -3.592646
1.056                   1.004371       -4.411847
1.06                    1.004094       -5.237802
1.064                   1.002952       -6.049129
1.068                   1.001129       -6.826749
1.072                  0.9989312       -7.557219
1.076                  0.9967405       -8.235286
1.08                   0.9949452       -8.865166
1.084                  0.9938716       -9.460185
1.088                  0.9937233       -10.04061
1.092                  0.9945398       -10.63014
1.096                  0.9961877       -11.25133
1.1                    0.9983818       -11.92162
1.104                   1.000735       -12.64991
1.108                   1.002829       -13.43516
1.112                   1.004285       -14.26656
1.116                    1.00483       -15.12563
1.12                    1.004348         -15.989
1.124                   1.002901       -16.83242
1.128                    1.00072       -17.63489
1.132                  0.9981726       -18.38218
1.136                  0.9957004        -19.0697
1.14                   0.9937438       -19.70376
1.144                  0.9926618       -20.30096
1.148                  0.9926647       -20.88549
1.152                  0.9937706       -21.48477
1.156                  0.9957991       -22.12437
1.16                    0.998401       -22.82318
1.164                    1.00112       -23.58995
1.168                   1.003473       -24.42188
1.172                   1.005035       -25.30516
1.176                   1.005511       -26.21737
1.18                    1.004794        -27.1312
1.184                   1.002977       -28.01885
1.188                   1.000353       -28.85663
1.192                  0.9973609       -29.62913
1.196                  0.9945207       -30.33239
1.2                    0.9923395       -30.97516
1.204                   0.991221       -31.57806
1.208                  0.9913874       -32.17018
1.212                  0.9928327       -32.78382
1.216                  0.9953201       -33.44839
1.22                   0.9984206       -34.18487
1.224                   1.001589       -35.00201
1.228                   1.004259       -35.89487
1.232                   1.005944       -36.84589
1.236                   1.006318       -37.82783
1.24                    1.005276       -38.80822
1.244                   1.002956       -39.75444
1.248                   0.999722       -40.63914
1.252                  0.9961098       -41.44505
1.256                  0.9927423       -42.16858
1.26                   0.9902199       -42.82153
1.264                  0.9890119       -43.42967
1.268                  0.9893633       -44.02874
1.272                  0.9912435       -44.65778
1.276                  0.9943436       -45.35176
1.28                   0.9981299        -46.1349
1.284                   1.001937       -47.01633
1.288                   1.005083        -47.9887
1.292                   1.006991       -49.02965
1.296                   1.007284       -50.10564
1.3                     1.005853       -51.17717
1.304                   1.002882       -52.20486
1.308                  0.9988313       -53.15587
1.312                  0.9943647       -54.00967
1.316                    0.99025       -54.76269
1.32                   0.9872245       -55.43022
1.324                  0.9858591       -56.04513
1.328                  0.9864433       -56.65253
1.332                  0.9889208       -57.30145
1.336                  0.9928887       -58.03533
1.34                   0.9976661       -58.88368
1.344                   1.002412       -59.85686
1.348                   1.006274       -60.94458
1.352                   1.008531       -62.11815
1.356                   1.008714       -63.33508
1.36                    1.006694       -64.54557
1.364                   1.002707       -65.69987
1.368                  0.9973398       -66.75594
1.372                  0.9914455        -67.6871
1.376                  0.9860158       -68.48806
1.38                   0.9820124       -69.17832
1.384                  0.9801872       -69.80087
1.388                  0.9809277       -70.41552
1.392                  0.9841645        -71.0879
1.396                  0.9893677       -71.87626
1.4                    0.9956346       -72.82026
1.404                   1.001847       -73.93394
1.408                   1.006863       -75.20402
1.412                    1.00971       -76.59294
1.416                   1.009741       -78.04489
1.42                    1.006751       -79.49374
1.424                   1.001025       -80.87202
1.428                   0.993328       -82.12088
1.432                  0.9848125       -83.20029
1.436                  0.9768602       -84.09882
1.44                   0.9708539       -84.84025
1.444                  0.9679195       -85.48409
1.448                  0.9686842       -86.11771
1.452                  0.9731175       -86.83999
1.456                  0.9805018       -87.74125
1.46                    0.989545       -88.88514
1.464                  0.9986023       -90.29788
1.468                   1.005952       -91.96583
1.472                   1.010068       -93.83995
1.476                   1.009856       -95.84393
1.48                    1.004825       -97.88386
1.484                  0.9951949       -99.85893
1.488                  0.9819271       -101.6736
1.492                  0.9666628       -103.2524
1.496                  0.9515481       -104.5584
1.5                    0.9389306       -105.6112
1.504                  0.9309342       -106.4997
1.508                  0.9289789        -107.379
1.512                   0.933375       -108.4467
1.516                  0.9431302       -109.9032
1.52                   0.9560416       -111.9125
1.524                  0.9690245       -114.5784
1.528                   0.978549       -117.9422
1.532                   0.981062       -121.9943
1.536                  0.9733217       -126.6925
1.54                   0.9526277       -131.9783
1.544                  0.9169648       -137.7896
1.548                  0.8650769       -144.0703
1.552                  0.7964946       -150.7767
1.556                  0.7115251       -157.8873
1.56                    0.611219         -165.42
1.564                  0.4973204       -173.4762
1.568                  0.3722333        177.6148
1.572                  0.2391526        166.6497
1.576                  0.1040881        145.8226
1.58                  0.06212198        22.98062
1.584                   0.192121       -13.56118
1.588                  0.3268303       -26.12657
1.592                  0.4549523       -35.52249
1.596                  0.5728513       -43.82385
1.6                    0.6779033       -51.53004
1.604                   0.768154       -58.79523
1.608                   0.842326       -65.65893
1.612                  0.8998662       -72.11088
1.616                  0.9409842       -78.11448
1.62                   0.9666697       -83.61762
1.624                  0.9786772       -88.56017
1.628                  0.9794694       -92.88203
1.632                  0.9720999       -96.53427
1.636                  0.9600184       -99.49436
1.64                    0.946776       -101.7836
1.644                   0.935637       -103.4824
1.648                  0.9291435       -104.7332
1.652                  0.9287389       -105.7254
1.656                  0.9345839       -106.6603
1.66                   0.9456467       -107.7107
1.664                  0.9600378       -108.9906
1.668                  0.9754712       -110.5446
1.672                  0.9897116       -112.3559
1.676                    1.00092       -114.3626
1.68                    1.007872       -116.4764
1.684                   1.010056       -118.5987
1.688                   1.007677       -120.6331
1.692                   1.001579       -122.4961
1.696                  0.9931057       -124.1272
1.7                    0.9838937       -125.4973
1.704                  0.9756209       -126.6148
1.708                  0.9697361       -127.5263
1.712                   0.967217       -128.3104
1.716                  0.9684068        -129.062
1.72                   0.9729818       -129.8742
1.724                  0.9800499       -130.8195
1.728                  0.9883533       -131.9383
1.732                  0.9965164       -133.2357
1.736                   1.003283       -134.6858
1.74                    1.007703       -136.2393
1.744                   1.009253       -137.8337
1.748                   1.007882       -139.4031
1.752                   1.003997       -140.8869
1.756                  0.9983833       -142.2382
1.76                   0.9920744       -143.4303
1.764                  0.9861851       -144.4618
1.768                  0.9817278       -145.3569
1.772                   0.979439       -146.1624
1.776                  0.9796575       -146.9384
1.78                   0.9822749       -147.7473
1.784                  0.9867736       -148.6415
1.788                  0.9923413       -149.6544
1.792                  0.9980284       -150.7962
1.796                   1.002916       -152.0544
1.8                     1.006263       -153.3978
1.804                   1.007611       -154.7833
1.808                   1.006839       -156.1625
1.812                   1.004171       -157.4896
1.816                   1.000126       -158.7271
1.82                   0.9954316       -159.8522
1.824                  0.9909025         -160.86
1.828                  0.9873071       -161.7648
1.832                  0.9852355       -162.5976
1.836                  0.9850012        -163.401
1.84                   0.9865929        -164.221
1.844                  0.9896864       -165.0982
1.848                  0.9937162       -166.0608
1.852                  0.9979827       -167.1204
1.856                   1.001779       -168.2715
1.86                    1.004505       -169.4933
1.864                   1.005761       -170.7546
1.868                   1.005398       -172.0185
1.872                   1.003534       -173.2489
1.876                   1.000527       -174.4151
1.88                   0.9969111       -175.4971
1.884                  0.9933092       -176.4885
1.888                  0.9903276       -177.3973
1.892                  0.9884542       -178.2455
1.896                  0.9879775       -179.0643
1.9                    0.9889404        -179.889
1.904                  0.9911401        179.2479
1.908                  0.9941721        178.3222
1.912                  0.9975077        177.3217
1.916                   1.000588        176.2477
1.92                     1.00292        175.1141
1.924                   1.004147        173.9437
1.928                   1.004108        172.7651
1.932                   1.002849        171.6073
1.936                   1.000614        170.4957
1.94                   0.9977969        169.4484
1.944                  0.9948801        168.4727
1.948                    0.99235        167.5648
1.952                  0.9906173        166.7097
1.956                  0.9899497        165.8844
1.96                   0.9904283        165.0614
1.964                  0.9919392        164.2143
1.968                  0.9941998        163.3222
1.972                  0.9968128        162.3728
1.976                  0.9993368        161.3644
1.98                    1.001362        160.3052
1.984                   1.002572        159.2117
1.988                   1.002795        158.1055
1.992                   1.002022        157.0099
1.996                   1.000403        155.9463
2                      0.9982224        154.9308
2.004                  0.9958453        153.9718
2.008                  0.9936619        153.0689
2.012                  0.9920196        152.2127
2.016                  0.9911695        151.3867
2.02                   0.9912248        150.5702
2.024                  0.9921461        149.7419
2.028                  0.9937545        148.8833
2.032                  0.9957638        147.9822
2.036                  0.9978341         147.034
2.04                    0.999627        146.0424
2.044                   1.000861        145.0177
2.048                   1.001351        143.9759
2.052                   1.001037        142.9349
2.056                  0.9999853        141.9126
2.06                   0.9983764        140.9236
2.064                  0.9964736        139.9775
2.068                  0.9945788         139.077
2.072                  0.9929857         138.218
2.076                  0.9919322        137.3903
2.08                   0.9915645         136.579
2.084                  0.9919161        135.7673
2.088                   0.992906        134.9392
2.092                  0.9943546        134.0822
2.096                  0.9960168         133.189
2.1                    0.9976217        132.2583
2.104                  0.9989151         131.295
2.108                  0.9996977        130.3087
2.112                  0.9998519        129.3126
2.116                  0.9993577        128.3213
2.12                   0.9982913        127.3483
2.124                  0.9968129        126.4045
2.128                   0.995141        125.4965
2.132                  0.9935186        124.6257
2.136                  0.9921781         123.788
2.14                   0.9913063        122.9746
2.144                  0.9910174        122.1732
2.148                  0.9913365        121.3701
2.152                  0.9921978        120.5519
2.156                  0.9934549        119.7079
2.16                   0.9949043        118.8314
2.164                  0.9963147        117.9206
2.168                  0.9974612        116.9788
2.172                  0.9981565        116.0139
2.176                  0.9982777         115.037
2.18                   0.9977824        114.0611
2.184                  0.9967161         113.099
2.188                  0.9952071        112.1623
2.192                  0.9934494        111.2586
2.196                   0.991678        110.3912
2.2                    0.9901357        109.5582
2.204                  0.9890377        108.7521
2.208                  0.9885395        107.9611
2.212                  0.9887107        107.1707
2.216                  0.9895208        106.3653
2.22                     0.99084         105.531
2.224                  0.9924554        104.6577
2.228                  0.9940989        103.7407
2.232                  0.9954856        102.7812
2.236                  0.9963553        101.7868
2.24                   0.9965129        100.7702
2.244                  0.9958594        99.74786
2.248                  0.9944134        98.73742
2.252                  0.9923145        97.75548
2.256                  0.9898114        96.81483
2.26                   0.9872299        95.92212
2.264                  0.9849288        95.07624
2.268                  0.9832436         94.2676
2.272                    0.98243        93.47899
2.276                  0.9826147        92.68774
2.28                   0.9837648        91.86914
2.284                  0.9856824        91.00053
2.288                  0.9880261        90.06506
2.292                  0.9903594        89.05475
2.296                  0.9922146        87.97208
2.3                    0.9931669        86.82981
2.304                  0.9929036         85.6495
2.308                  0.9912804        84.45858
2.312                  0.9883562        83.28654
2.316                  0.9844004        82.16049
2.32                   0.9798668        81.10039
2.324                  0.9753369        80.11481
2.328                  0.9714328        79.19775
2.332                  0.9687127        78.32763
2.336                  0.9675654        77.46903
2.34                   0.9681224        76.57766
2.344                   0.970212        75.60742
2.348                  0.9733641        74.51847
2.352                  0.9768704        73.28413