! TOUCHSTONE file generated by CST MICROWAVE STUDIO
! Date and time: Tue Jun 14 14:10:50 2022
! Project name: AppElm_antenne_patch_FR4.cst
! Parameters = {L=45; W=58.5; e=0.035; h=1.6; lambda=0.190476; ls=120; w0=2.54; w1=0.847; ws=126; y0=18; y1=23.8}
! Header version: 2018
! Port assignment regex: !\s*Touchstone port\s*([0-9]+)\s*=\s*(CST MWS port|CST DS port)\s*([0-9]+|Zmin|Zmax)\s*\(\"(.*)\"\)(\s*mode\s*([0-9]+))?.*
! Touchstone port assignment:
! Touchstone port 1 = CST MWS port 1 ("")
# GHz S MA R 50
0                      0.9874247              -0
0.004                  0.9881668       -9.976022
0.008                  0.9902911       -19.85912
0.012                  0.9935082        -29.5612
0.016                  0.9973854       -39.00297
0.02                    1.001411       -48.11656
0.024                   1.005067       -56.84662
0.028                     1.0079        -65.1503
0.032                    1.00958        -72.9964
0.036                   1.009938       -80.36449
0.04                    1.008982       -87.24426
0.044                   1.006897       -93.63515
0.048                   1.004011       -99.54649
0.052                   1.000751       -104.9976
0.056                  0.9975814       -110.0179
0.06                   0.9949407       -114.6459
0.064                  0.9931752       -118.9272
0.068                   0.992492       -122.9118
0.072                  0.9929318       -126.6502
0.076                  0.9943683        -130.189
0.08                    0.996534       -133.5676
0.084                  0.9990675       -136.8157
0.088                   1.001572       -139.9521
0.092                   1.003677       -142.9852
0.096                   1.005089       -145.9148
0.1                     1.005635       -148.7347
0.104                   1.005276       -151.4355
0.108                   1.004114        -154.008
0.112                   1.002365       -156.4458
0.116                   1.000329       -158.7475
0.12                   0.9983366       -160.9184
0.124                  0.9967018       -162.9704
0.128                  0.9956694       -164.9214
0.132                  0.9953805       -166.7929
0.136                  0.9958516       -168.6079
0.14                   0.9969768       -170.3873
0.144                  0.9985492       -172.1475
0.148                   1.000298       -173.8986
0.152                   1.001935       -175.6439
0.156                   1.003201       -177.3797
0.16                    1.003906       -179.0973
0.164                   1.003954        179.2154
0.168                   1.003361        177.5713
0.172                   1.002243        175.9818
0.176                   1.000796        174.4546
0.18                   0.9992685        172.9925
0.184                  0.9979128        171.5923
0.188                  0.9969483        170.2453
0.192                  0.9965245        168.9387
0.196                  0.9966973        167.6574
0.2                     0.997422        166.3862
0.204                  0.9985631        165.1127
0.208                  0.9999193        163.8285
0.212                   1.001259        162.5309
0.216                    1.00236        161.2224
0.22                    1.003043        159.9105
0.224                   1.003204        158.6057
0.228                   1.002827        157.3199
0.232                   1.001985        156.0643
0.236                   1.000827        154.8475
0.24                   0.9995519        153.6739
0.244                  0.9983767        152.5429
0.248                  0.9974975        151.4491
0.252                   0.997058        150.3829
0.256                  0.9971253        149.3322
0.26                   0.9976793        148.2845
0.264                  0.9986176         147.229
0.268                  0.9997744        146.1581
0.272                    1.00095        145.0689
0.276                   1.001944        143.9633
0.28                     1.00259        142.8476
0.284                   1.002785        141.7312
0.288                   1.002499        140.6249
0.292                   1.001788        139.5394
0.296                   1.000776        138.4832
0.3                    0.9996393        137.4609
0.304                  0.9985717         136.473
0.308                  0.9977563        135.5153
0.312                  0.9973299        134.5797
0.316                  0.9973624        133.6556
0.32                   0.9978438        132.7316
0.324                  0.9986868        131.7979
0.328                  0.9997429        130.8472
0.332                   1.000829        129.8767
0.336                   1.001757        128.8879
0.34                     1.00237        127.8865
0.344                   1.002565        126.8813
0.348                   1.002311        125.8826
0.352                   1.001655        124.9007
0.356                   1.000712        123.9436
0.36                   0.9996439        123.0163
0.364                  0.9986371        122.1194
0.368                  0.9978654        121.2492
0.372                  0.9974616        120.3982
0.376                  0.9974943        119.5563
0.38                    0.997956         118.713
0.384                   0.998765        117.8586
0.388                   0.999779        116.9863
0.392                   1.000822        116.0932
0.396                   1.001712        115.1809
0.4                     1.002297         114.255
0.404                   1.002477        113.3241
0.408                   1.002222        112.3981
0.412                   1.001577        111.4872
0.416                   1.000654        110.5993
0.42                    0.999614        109.7392
0.424                  0.9986384        108.9075
0.428                  0.9978975        108.1006
0.432                  0.9975209        107.3111
0.436                  0.9975744         106.529
0.44                   0.9980486        105.7439
0.444                  0.9988605        104.9464
0.448                  0.9998674        104.1299
0.452                   1.000893        103.2919
0.456                    1.00176        102.4339
0.46                    1.002315        101.5618
0.464                   1.002462        100.6842
0.468                   1.002176        99.81138
0.472                   1.001505        98.95317
0.476                   1.000564        98.11751
0.48                   0.9995187        97.30906
0.484                  0.9985497        96.52818
0.488                  0.9978276        95.77094
0.492                  0.9974795         95.0297
0.496                  0.9975674        94.29443
0.5                     0.998076         93.5545
0.504                  0.9989163        92.80061
0.508                  0.9999404        92.02634
0.512                   1.000968        91.22943
0.516                   1.001819        90.41196
0.52                    1.002343        89.58007
0.524                   1.002447        88.74284
0.528                   1.002111        87.91069
0.532                   1.001391        87.09364
0.536                   1.000411        86.29961
0.54                   0.9993422        85.53292
0.544                  0.9983714        84.79358
0.548                  0.9976702        84.07714
0.552                  0.9973635        83.37542
0.556                  0.9975069          82.678
0.56                   0.9980772        81.97397
0.564                  0.9989745        81.25398
0.568                   1.000041        80.51185
0.572                    1.00109        79.74573
0.576                   1.001936        78.95827
0.58                    1.002429        78.15625
0.584                    1.00248        77.34933
0.588                   1.002078        76.54839
0.592                    1.00129        75.76366
0.596                   1.000252        75.00301
0.6                    0.9991456        74.27045
0.604                  0.9981654         73.5654
0.608                  0.9974854        72.88269
0.612                  0.9972283        72.21347
0.616                   0.997442        71.54662
0.62                   0.9980911         70.8709
0.624                  0.9990626        70.17683
0.628                   1.000186        69.45855
0.632                   1.001262        68.71472
0.636                     1.0021        67.94878
0.64                    1.002551        67.16832
0.644                   1.002532        66.38379
0.648                   1.002041        65.60665
0.652                   1.001163        64.84744
0.656                   1.000047         64.1139
0.66                   0.9988885        63.40965
0.664                  0.9978927        62.73338
0.668                  0.9972372        62.07902
0.672                  0.9970413        61.43671
0.676                   0.997343        60.79458
0.68                    0.998092        60.14083
0.684                  0.9991577        59.46598
0.688                   1.000353        58.76441
0.692                   1.001466        58.03552
0.696                   1.002299        57.28368
0.7                     1.002701        56.51755
0.704                   1.002599        55.74847
0.708                   1.002005        54.98862
0.712                    1.00102        54.24886
0.716                  0.9998131        53.53685
0.72                   0.9985963        52.85564
0.724                   0.997586        52.20302
0.728                  0.9969638        51.57179
0.732                  0.9968443        50.95095
0.736                  0.9972535        50.32765
0.74                   0.9981221         49.6896
0.744                  0.9992989        49.02716
0.748                   1.000576        48.33519
0.752                   1.001728        47.61395
0.756                   1.002547        46.86898
0.76                    1.002886        46.11014
0.764                   1.002678        45.34991
0.768                   1.001955        44.60128
0.772                   1.000836        43.87547
0.776                  0.9995166           43.18
0.78                   0.9982266        42.51724
0.784                  0.9971956        41.88385
0.788                  0.9966096        41.27129
0.792                  0.9965772        40.66723
0.796                  0.9971091         40.0577
0.8                    0.9981143        39.42976
0.804                  0.9994166        38.77375
0.808                   1.000786        38.08506
0.812                   1.001977          37.365
0.816                   1.002777        36.62047
0.82                    1.003037        35.86275
0.824                   1.002705        35.10562
0.828                   1.001832        34.36297
0.832                   1.000564         33.6464
0.836                  0.9991201        32.96319
0.84                   0.9977548        32.31484
0.844                  0.9967119        31.69672
0.848                  0.9961812        31.09866
0.852                  0.9962632        30.50673
0.856                  0.9969495        29.90575
0.86                   0.9981234        29.28205
0.864                  0.9995793        28.62595
0.868                    1.00106        27.93358
0.872                   1.002301        27.20748
0.876                    1.00308        26.45616
0.88                    1.003251        25.69257
0.884                   1.002777        24.93197
0.888                   1.001731        24.18927
0.892                   1.000292        23.47648
0.896                   0.998708        22.80055
0.9                     0.997259        22.16199
0.904                  0.9962052        21.55458
0.908                    0.99574        20.96631
0.912                  0.9959539        20.38142
0.916                  0.9968163        19.78331
0.92                   0.9981792        19.15755
0.924                  0.9998037        18.49455
0.928                   1.001402        17.79129
0.932                   1.002687         17.0518
0.936                   1.003427        16.28646
0.94                    1.003482        15.51018
0.944                    1.00283        14.73988
0.948                   1.001575        13.99164
0.952                  0.9999297        13.27791
0.956                  0.9981783        12.60521
0.96                   0.9966305        11.97285
0.964                   0.995565        11.37272
0.968                  0.9951789         10.7906
0.972                  0.9955502        10.20862
0.976                  0.9966214        9.608525
0.98                   0.9982084        8.975032
0.984                   1.000033         8.29866
0.988                   1.001771        7.577412
0.992                   1.003112        6.817088
0.996                   1.003811        6.030242
1                       1.003733        5.234025
1.004                    1.00288        4.447311
1.008                   1.001388        3.687512
1.012                  0.9995105        2.967555
1.016                  0.9975731        2.293482
1.02                   0.9959197         1.66312
1.024                  0.9948504        1.066167
1.028                  0.9945662       0.4858097
1.032                  0.9951296     -0.09831406
1.036                  0.9964509       -0.706381
1.04                   0.9983033       -1.354627
1.044                   1.000362       -2.052367
1.048                    1.00226       -2.800343
1.052                   1.003659        -3.59066
1.056                   1.004299       -4.408176
1.06                    1.004054       -5.233077
1.064                   1.002949       -6.044169
1.068                   1.001161       -6.822426
1.072                  0.9989908       -7.554313
1.076                  0.9968155       -8.234356
1.08                   0.9950199       -8.866395
1.084                  0.9939306       -9.463408
1.088                   0.993753       -10.04531
1.092                  0.9945323       -10.63547
1.096                  0.9961415       -11.25636
1.1                    0.9983023       -11.92542
1.104                   1.000634       -12.65179
1.108                   1.002721       -13.43478
1.112                   1.004186       -14.26402
1.116                   1.004757       -15.12124
1.12                    1.004311       -15.98353
1.124                   1.002905       -16.82682
1.128                   1.000763       -17.63011
1.132                  0.9982455       -18.37909
1.136                  0.9957887       -19.06888
1.14                   0.9938298       -19.70542
1.144                  0.9927278       -20.30486
1.148                  0.9926962       -20.89098
1.152                  0.9937589       -21.49089
1.156                   0.995743       -22.13005
1.16                   0.9983072       -22.82739
1.164                   1.001002       -23.59196
1.168                   1.003348        -24.4213
1.172                   1.004921       -25.30205
1.176                   1.005427       -26.21222
1.18                    1.004751       -27.12485
1.184                   1.002981       -28.01235
1.188                     1.0004       -28.85108
1.192                  0.9974419       -29.62551
1.196                  0.9946182       -30.33134
1.2                    0.9924334        -30.9769
1.204                  0.9912913       -31.58229
1.208                  0.9914177       -32.17613
1.212                   0.992814       -32.79038
1.216                  0.9952515       -33.45433
1.22                     0.99831       -34.18907
1.224                   1.001452       -35.00361
1.228                   1.004116       -35.89348
1.232                   1.005817       -36.84162
1.236                   1.006227       -37.82128
1.24                    1.005234       -38.80035
1.244                   1.002969       -39.74649
1.248                  0.9997854       -40.63238
1.252                  0.9962118        -41.4406
1.256                  0.9928628       -42.16722
1.26                   0.9903355       -42.82346
1.264                  0.9890989       -43.43456
1.268                   0.989403       -44.03565
1.272                  0.9912248        -44.6654
1.276                   0.994266       -45.35865
1.28                   0.9980031       -46.13972
1.284                   1.001779        -47.0181
1.288                   1.004919       -47.98697
1.292                   1.006845       -49.02458
1.296                   1.007179       -50.09791
1.3                     1.005805       -51.16791
1.304                   1.002898       -52.19552
1.308                   0.998906       -53.14795
1.312                  0.9944836       -54.00451
1.316                  0.9903895       -54.76116
1.32                   0.9873566       -55.43261
1.324                  0.9859556       -56.05097
1.328                  0.9864818       -56.66072
1.332                  0.9888884       -57.31038
1.336                  0.9927849       -58.04323
1.34                   0.9975028       -58.88896
1.344                   1.002212       -59.85832
1.348                   1.006067       -60.94173
1.352                   1.008346       -62.11113
1.356                   1.008581       -63.32473
1.36                    1.006631       -64.53328
1.364                   1.002724       -65.68737
1.368                  0.9974312       -66.74511
1.372                   0.991594       -67.67962
1.376                  0.9861925        -68.4851
1.38                   0.9821823       -69.18029
1.384                  0.9803148       -69.80727
1.388                  0.9809838       -70.42499
1.392                  0.9841321       -71.09843
1.396                   0.989245       -71.88562
1.4                    0.9954358       -72.82641
1.404                     1.0016       -73.93536
1.408                   1.006604       -75.20001
1.412                   1.009478       -76.58364
1.416                   1.009571       -78.03131
1.42                     1.00667       -79.47758
1.424                   1.001045       -80.85549
1.428                  0.9934445        -82.1064
1.432                  0.9850039       -83.19016
1.436                  0.9770889       -84.09472
1.44                   0.9710726       -84.84291
1.444                  0.9680783       -85.49299
1.448                  0.9687408       -86.13099
1.452                  0.9730448       -86.85485
1.456                  0.9802942       -87.75444
1.46                   0.9892189       -88.89368
1.464                  0.9981935       -90.29947
1.468                    1.00551       -91.95924
1.472                   1.009647       -93.82509
1.476                   1.009509       -95.82183
1.48                    1.004593       -97.85655
1.484                  0.9951028       -99.82928
1.488                   0.981978       -101.6449
1.492                  0.9668332       -103.2284
1.496                   0.951789       -104.5419
1.5                    0.9391719       -105.6042
1.504                  0.9310943       -106.5019
1.508                  0.9289799        -107.388
1.512                  0.9331585       -108.4576
1.516                  0.9426694         -109.91
1.52                   0.9553468        -111.909
1.524                  0.9681396       -114.5595
1.528                  0.9775444       -117.9037
1.532                  0.9800245       -121.9334
1.536                  0.9723444       -126.6072
1.54                   0.9518037       -131.8671
1.544                  0.9163788       -137.6509
1.548                  0.8648021       -143.9018
1.552                  0.7965876       -150.5749
1.556                  0.7120239       -157.6462
1.56                   0.6121396       -165.1289
1.564                  0.4986532        -173.114
1.568                  0.3739332        178.0959
1.572                  0.2410983        167.3937
1.576                  0.1057276        147.6641
1.58                  0.05836221        23.39067
1.584                   0.188492          -13.88
1.588                  0.3232163       -26.29414
1.592                  0.4513547       -35.60393
1.596                  0.5693267       -43.85215
1.6                    0.6745219       -51.52261
1.604                  0.7649864        -58.7625
1.608                  0.8394362       -65.60794
1.612                  0.8973068       -72.04687
1.616                  0.9387932       -78.04175
1.62                   0.9648673       -83.54007
1.624                  0.9772643       -88.48142
1.628                  0.9784255       -92.80563
1.632                  0.9713838       -96.46365
1.636                  0.9595694       -99.43254
1.64                   0.9465188       -101.7328
1.644                  0.9354892       -103.4436
1.648                   0.929026       -104.7057
1.652                  0.9285873       -105.7069
1.656                  0.9343573       -106.6473
1.66                   0.9453307       -107.6997
1.664                  0.9596422       -108.9784
1.668                  0.9750234       -110.5292
1.672                  0.9892484       -112.3361
1.676                    1.00048       -114.3384
1.68                    1.007488       -116.4486
1.684                   1.009752       -118.5686
1.688                   1.007465       -120.6022
1.692                   1.001461       -122.4661
1.696                   0.993069       -124.0997
1.7                    0.9839171       -125.4736
1.704                  0.9756764       -126.5954
1.708                  0.9697952       -127.5113
1.712                  0.9672542       -128.2991
1.716                  0.9684044       -129.0533
1.72                   0.9729325       -129.8666
1.724                  0.9799561       -130.8116
1.728                   0.988226       -131.9291
1.732                  0.9963715       -133.2246
1.736                   1.003139       -134.6726
1.74                    1.007575       -136.2242
1.744                   1.009154       -137.8174
1.748                    1.00782       -139.3862
1.752                   1.003972       -140.8701
1.756                  0.9983919       -142.2223
1.76                   0.9921078       -143.4158
1.764                  0.9862324        -144.449
1.768                  0.9817773       -145.3459
1.772                  0.9794811       -146.1528
1.776                  0.9796856       -146.9298
1.78                   0.9822864       -147.7392
1.784                  0.9867699       -148.6333
1.788                  0.9923272       -149.6458
1.792                  0.9980097       -150.7871
1.796                   1.002899       -152.0446
1.8                     1.006253       -153.3876
1.804                   1.007611       -154.7728
1.808                   1.006851        -156.152
1.812                   1.004194       -157.4792
1.816                   1.000157       -158.7171
1.82                   0.9954676       -159.8426
1.824                  0.9909415       -160.8508
1.828                   0.987347       -161.7558
1.832                  0.9852761       -162.5889
1.836                  0.9850434       -163.3924
1.84                   0.9866381       -164.2125
1.844                  0.9897367       -165.0898
1.848                  0.9937725       -166.0526
1.852                  0.9980454       -167.1126
1.856                   1.001846       -168.2642
1.86                    1.004574       -169.4867
1.864                   1.005827       -170.7485
1.868                   1.005458        -172.013
1.872                   1.003583       -173.2437
1.876                   1.000565         -174.41
1.88                   0.9969379       -175.4918
1.884                  0.9933283       -176.4825
1.888                  0.9903447       -177.3906
1.892                  0.9884768       -178.2379
1.896                   0.988013        -179.056
1.9                    0.9889947       -179.8803
1.904                  0.9912166        179.2565
1.908                  0.9942704        178.3302
1.912                  0.9976234        177.3286
1.916                   1.000714        176.2532
1.92                    1.003044        175.1179
1.924                    1.00426        173.9461
1.928                     1.0042        172.7663
1.932                   1.002914        171.6079
1.936                    1.00065        170.4965
1.94                   0.9978072        169.4499
1.944                  0.9948731        168.4757
1.948                  0.9923382        167.5696
1.952                  0.9906153        166.7163
1.956                  0.9899712        165.8923
1.96                   0.9904837        165.0701
1.964                  0.9920336         164.223
1.968                  0.9943315        163.3299
1.972                  0.9969732        162.3786
1.976                   0.999512        161.3677
1.98                    1.001534        160.3059
1.984                   1.002724        159.2099
1.988                   1.002911        158.1019
1.992                   1.002093        157.0055
1.996                   1.000426        155.9421
2                      0.9982025        154.9279
2.004                  0.9957968        153.9711
2.008                  0.9936037        153.0709
2.012                   0.991974        152.2175
2.016                   0.991157        151.3938
2.02                    0.991261        150.5786
2.024                  0.9922385        149.7502
2.028                  0.9939003        148.8902
2.032                  0.9959508        147.9865
2.036                  0.9980413        147.0348
2.04                   0.9998295        146.0394
2.044                   1.001033        145.0113
2.048                   1.001471        143.9669
2.052                    1.00109        142.9247
2.056                  0.9999694        141.9028
2.06                   0.9982997        140.9157
2.064                  0.9963551        139.9727
2.068                  0.9944462        139.0761
2.072                  0.9928692        138.2211
2.076                  0.9918608        137.3966
2.08                   0.9915598        136.5871
2.084                  0.9919882        135.7754
2.088                  0.9930506        134.9455
2.092                  0.9945546        134.0848
2.096                  0.9962434        133.1868
2.1                    0.9978399        132.2509
2.104                  0.9990893        131.2828
2.108                   0.999798        130.2931
2.112                  0.9998596        129.2954
2.116                  0.9992684        128.3046
2.12                   0.9981169        127.3343
2.124                  0.9965798        126.3949
2.128                  0.9948859        125.4923
2.132                  0.9932832        124.6269
2.136                  0.9920015        123.7936
2.14                   0.9912174        122.9828
2.144                  0.9910299        122.1816
2.148                  0.9914451        121.3759
2.152                  0.9923787        120.5529
2.156                  0.9936696        119.7025
2.16                   0.9951052        118.8191
2.164                  0.9964537         117.902
2.168                  0.9974984        116.9557
2.172                  0.9980667        115.9888
2.176                  0.9980556        115.0128
2.18                   0.9974446        114.0406
2.184                  0.9962988        113.0847
2.188                  0.9947605        112.1553
2.192                  0.9930301        111.2591
2.196                  0.9913386        110.3977
2.2                    0.9899153        109.5682
2.204                  0.9889546        108.7622
2.208                  0.9885861        107.9678
2.212                  0.9888539        107.1706
2.216                  0.9897066        106.3563
2.22                   0.9910029        105.5125
2.224                  0.9925285        104.6305
2.228                  0.9940264        103.7071
2.232                  0.9952326        102.7449
2.236                  0.9959144        101.7517
2.24                   0.9959063        100.7404
2.244                  0.9951365        99.72643
2.248                  0.9936431        98.72619
2.252                  0.9915741        97.75448
2.256                  0.9891729        96.82223
2.26                   0.9867479        95.93446
2.264                  0.9846282        95.08884
2.268                  0.9831137        94.27542
2.272                   0.982424         93.4775
2.276                  0.9826559        92.67385
2.28                    0.983759        91.84179
2.284                  0.9855338        90.96103
2.288                  0.9876541         90.0169
2.292                  0.9897133        89.00311
2.296                  0.9912833        87.92286
2.3                    0.9919823        86.78874
2.304                  0.9915362        85.62117
2.308                  0.9898297        84.44567
2.312                  0.9869349        83.28925
2.316                  0.9831151        82.17627
2.32                   0.9787996        81.12424
2.324                  0.9745275        80.13982
2.328                  0.9708675        79.21619
2.332                  0.9683222        78.33231
2.336                  0.9672316        77.45478
2.34                   0.9676965        76.54244
2.344                  0.9695384        75.55299
2.348                  0.9723076        74.45014
2.352                  0.9753392        73.20988