! TOUCHSTONE file generated by CST MICROWAVE STUDIO
! Date and time: Tue Jun 14 14:10:53 2022
! Project name: AppElm_antenne_patch_FR4.cst
! Parameters = {L=45; W=58.5; e=0.035; h=1.6; lambda=0.190476; ls=120; w0=2.54; w1=0.847; ws=144; y0=18; y1=23.8}
! Header version: 2018
! Port assignment regex: !\s*Touchstone port\s*([0-9]+)\s*=\s*(CST MWS port|CST DS port)\s*([0-9]+|Zmin|Zmax)\s*\(\"(.*)\"\)(\s*mode\s*([0-9]+))?.*
! Touchstone port assignment:
! Touchstone port 1 = CST MWS port 1 ("")
# GHz S MA R 50
0                       0.987533              -0
0.004                  0.9882715       -9.978875
0.008                  0.9903855       -19.86468
0.012                  0.9935858       -29.56919
0.016                    0.99744       -39.01298
0.02                    1.001438       -48.12806
0.024                   1.005063       -56.85905
0.028                   1.007864       -65.16299
0.032                   1.009514       -73.00869
0.036                   1.009845       -80.37576
0.04                    1.008872       -87.25397
0.044                   1.006778       -93.64291
0.048                   1.003896       -99.55209
0.052                   1.000652       -105.0012
0.056                  0.9975112       -110.0197
0.06                   0.9949075       -114.6465
0.064                  0.9931837       -118.9275
0.068                  0.9925415       -122.9126
0.072                  0.9930161       -126.6523
0.076                   0.994476        -130.193
0.08                   0.9966504       -133.5739
0.084                  0.9991763       -136.8244
0.088                   1.001658       -139.9627
0.092                   1.003727       -142.9971
0.096                   1.005096       -145.9272
0.1                     1.005597       -148.7466
0.104                   1.005199        -151.446
0.108                   1.004009       -154.0163
0.112                   1.002248       -156.4514
0.116                   1.000217       -158.7503
0.12                   0.9982475       -160.9188
0.124                  0.9966498       -162.9689
0.128                  0.9956632        -164.919
0.132                  0.9954215       -166.7908
0.136                  0.9959336       -168.6071
0.14                   0.9970874       -170.3886
0.144                  0.9986709       -172.1514
0.148                   1.000412       -173.9051
0.152                   1.002023       -175.6526
0.156                   1.003249       -177.3899
0.16                    1.003906       -179.1079
0.164                   1.003908        179.2055
0.168                   1.003275         177.563
0.172                    1.00213         175.976
0.176                   1.000676        174.4517
0.18                   0.9991608        172.9923
0.184                  0.9978352        171.5944
0.188                   0.996914        170.2489
0.192                  0.9965393        168.9426
0.196                   0.996759        167.6605
0.2                    0.9975206        166.3875
0.204                  0.9986824        165.1114
0.208                   1.000039        163.8245
0.212                    1.00136        162.5243
0.216                   1.002425        161.2139
0.22                    1.003061         159.901
0.224                   1.003172        158.5964
0.228                    1.00275         157.312
0.232                   1.001875        156.0587
0.236                   1.000702        154.8447
0.24                   0.9994335         153.674
0.244                   0.998284        152.5456
0.248                  0.9974462        151.4536
0.252                  0.9970566         150.388
0.256                  0.9971739        149.3368
0.26                     0.99777        148.2875
0.264                  0.9987348        147.2295
0.268                  0.9998982        146.1558
0.272                   1.001059        145.0638
0.276                    1.00202         143.956
0.28                    1.002621         142.839
0.284                   1.002764        141.7225
0.288                    1.00243        140.6174
0.292                   1.001682         139.534
0.296                   1.000651        138.4805
0.3                     0.999516        137.4613
0.304                  0.9984714        136.4762
0.308                  0.9976958        135.5204
0.312                  0.9973201        134.5857
0.316                  0.9974048        133.6613
0.32                   0.9979315        132.7358
0.324                  0.9988046        131.7996
0.328                  0.9998708        130.8459
0.332                   1.000945        129.8725
0.336                   1.001841        128.8813
0.34                    1.002408        127.8784
0.344                    1.00255         126.873
0.348                   1.002246        125.8753
0.352                    1.00155        124.8954
0.356                   1.000584        123.9412
0.36                   0.9995156         123.017
0.364                  0.9985302         122.123
0.368                  0.9977982        121.2549
0.372                  0.9974457        120.4049
0.376                  0.9975329        119.5629
0.38                   0.9980425        118.7181
0.384                  0.9988846        117.8612
0.388                  0.9999114        116.9858
0.392                   1.000944        116.0897
0.396                   1.001804        115.1749
0.4                     1.002343        114.2474
0.404                   1.002468         113.316
0.408                    1.00216         112.391
0.412                   1.001472        111.4821
0.416                   1.000525        110.5971
0.42                   0.9994832        109.7402
0.424                  0.9985285        108.9115
0.428                  0.9978278        108.1069
0.432                  0.9975041        107.3185
0.436                  0.9976142        106.5362
0.44                   0.9981387        105.7496
0.444                  0.9989858        104.9496
0.448                   1.000007          104.13
0.452                   1.001024        103.2887
0.456                   1.001858         102.428
0.46                    1.002366        101.5541
0.464                   1.002456        100.6761
0.468                   1.002114        99.80409
0.472                   1.001398        98.94795
0.476                   1.000431        98.11527
0.48                   0.9993819        97.31014
0.484                  0.9984335        96.53241
0.488                  0.9977524        95.77757
0.492                  0.9974588        95.03754
0.496                   0.997605        94.30211
0.5                    0.9981659        93.56068
0.504                   0.999043        92.80415
0.508                   1.000082        92.02665
0.512                     1.0011        91.22641
0.516                   1.001919        90.40611
0.52                    1.002392        89.57242
0.524                   1.002437        88.73467
0.528                   1.002042        87.90345
0.532                   1.001275         87.0886
0.536                   1.000268        86.29767
0.54                    0.999196         85.5345
0.544                  0.9982471        84.79846
0.548                  0.9975893        84.08454
0.552                    0.99734        83.38413
0.556                  0.9975452        82.68655
0.56                   0.9981705        81.98093
0.564                  0.9991067         81.2582
0.568                    1.00019        80.51265
0.572                   1.001229        79.74304
0.576                    1.00204        78.95262
0.58                    1.002481        78.14871
0.584                    1.00247        77.34127
0.588                   1.002007        76.54131
0.592                   1.001171        75.75888
0.596                   1.000105         75.0015
0.6                    0.9989962        74.27258
0.604                  0.9980396        73.57095
0.608                  0.9974059        72.89086
0.612                  0.9972095        72.22293
0.616                   0.997488        71.55585
0.62                   0.9981946        70.87836
0.624                  0.9992061        70.18138
0.628                   1.000345        69.45945
0.632                   1.001409        68.71194
0.636                   1.002211        67.94292
0.64                    1.002606        67.16052
0.644                   1.002521         66.3755
0.648                   1.001967        65.59944
0.652                   1.001037         64.8427
0.656                  0.9998926        64.11265
0.66                   0.9987327        63.41228
0.664                  0.9977629        62.73961
0.668                  0.9971571        62.08794
0.672                  0.9970257        61.44694
0.676                  0.9973957        60.80448
0.68                   0.9982049        60.14884
0.684                  0.9993121        59.47084
0.688                   1.000523        58.76542
0.692                   1.001622        58.03268
0.696                   1.002415        57.27764
0.7                     1.002758        56.50951
0.704                   1.002587        55.74001
0.708                   1.001926        54.98138
0.712                   1.000889        54.24431
0.716                   0.999653          53.536
0.72                   0.9984366        52.85889
0.724                  0.9974558        52.21004
0.728                  0.9968878        51.58157
0.732                  0.9968378        50.96199
0.736                  0.9973193        50.33823
0.74                    0.998251        49.69802
0.744                  0.9994703        49.03213
0.748                   1.000762        48.33603
0.752                   1.001897        47.61069
0.756                   1.002672        46.86235
0.76                    1.002946        46.10146
0.764                   1.002664        45.34088
0.768                    1.00187        44.59364
0.772                   1.000697        43.87078
0.776                  0.9993481        43.17931
0.78                   0.9980601        42.52091
0.784                  0.9970622        41.89149
0.788                  0.9965351         41.2818
0.792                   0.996577        40.67895
0.796                  0.9971855        40.06881
0.8                    0.9982563        39.43847
0.804                  0.9996016        38.77873
0.808                   1.000983        38.08564
0.812                   1.002155        37.36125
0.816                   1.002905        36.61325
0.82                    1.003095        35.85351
0.824                   1.002684        35.09617
0.828                   1.001737        34.35519
0.832                   1.000412        33.64191
0.836                  0.9989405        32.96306
0.84                   0.9975809        32.31941
0.844                  0.9965767        31.70549
0.848                  0.9961117        31.11037
0.852                  0.9962748        30.51961
0.856                  0.9970441        29.91778
0.86                   0.9982878        29.29134
0.864                  0.9997883        28.63113
0.868                   1.001281        27.93397
0.872                   1.002498        27.20323
0.876                   1.003222        26.44823
0.88                    1.003317        25.68256
0.884                   1.002758        24.92184
0.888                   1.001634        24.18103
0.892                   1.000136        23.47183
0.896                  0.9985247        22.80061
0.9                    0.9970844        22.16704
0.904                  0.9960748        21.56402
0.908                  0.9956818        20.97873
0.912                  0.9959836        20.39486
0.916                   0.996934         19.7956
0.92                   0.9983696        19.16671
0.924                   1.000039        18.49913
0.928                   1.001645        17.79065
0.932                   1.002901         17.0462
0.936                   1.003578        16.27701
0.94                    1.003548        15.49865
0.944                   1.002803        14.72843
0.948                   1.001464        13.98243
0.952                  0.9997567        13.27274
0.956                  0.9979781        12.60525
0.96                   0.9964427        11.97832
0.964                  0.9954279         11.3829
0.968                  0.9951222        10.80391
0.972                  0.9955897        10.22289
0.976                   0.996756        9.621386
0.98                   0.9984204        8.984356
0.984                   1.000291        8.302937
0.988                   1.002035        7.576017
0.992                   1.003341        6.810375
0.996                    1.00397        6.019474
1                         1.0038        5.221171
1.004                   1.002846        4.434718
1.008                   1.001264        3.677517
1.012                  0.9993223        2.962087
1.016                  0.9973589        2.293713
1.02                   0.9957233        1.669228
1.024                  0.9947129        1.077271
1.028                  0.9945189       0.5001036
1.032                  0.9951883     -0.08325104
1.036                  0.9966129      -0.6931407
1.04                   0.9985474         -1.3455
1.044                   1.000652       -2.048933
1.048                   1.002553       -2.803201
1.052                   1.003909       -3.599333
1.056                   1.004469       -4.421201
1.06                    1.004119       -5.248245
1.064                   1.002902       -6.058877
1.068                   1.001014        -6.83411
1.072                  0.9987754       -7.560879
1.076                  0.9965734       -8.234547
1.08                   0.9947994       -8.860112
1.084                  0.9937765        -9.45166
1.088                  0.9936995       -10.03015
1.092                  0.9945955       -10.61959
1.096                   0.996317       -11.24262
1.1                    0.9985655       -11.91632
1.104                   1.000945       -12.64898
1.108                   1.003031       -13.43888
1.112                   1.004446       -14.27435
1.116                   1.004925       -15.13621
1.12                    1.004362       -16.00058
1.124                   1.002833       -16.84307
1.128                   1.000583       -17.64276
1.132                  0.9979928       -18.38585
1.136                  0.9955112       -19.06844
1.14                   0.9935814       -19.69772
1.144                  0.9925586       -20.29114
1.148                   0.992643        -20.8736
1.152                  0.9938387       -21.47294
1.156                  0.9959496       -22.11473
1.16                   0.9986118       -22.81747
1.164                   1.001358       -23.58925
1.168                   1.003701        -24.4264
1.172                   1.005217       -25.31421
1.176                   1.005619       -26.22952
1.18                     1.00481       -27.14449
1.184                   1.002902       -28.03108
1.188                   1.000201       -28.86573
1.192                   0.997162       -29.63353
1.196                  0.9943121        -30.3313
1.2                    0.9921617       -30.96876
1.204                  0.9911101       -31.56751
1.208                  0.9913679       -32.15742
1.212                  0.9929137       -32.77125
1.216                  0.9954923       -33.43841
1.22                   0.9986585       -34.17942
1.224                   1.001855       -35.00226
1.228                   1.004511       -35.90101
1.232                   1.006141       -36.85711
1.236                   1.006428       -37.84249
1.24                    1.005282       -38.82406
1.244                   1.002856       -39.76897
1.248                  0.9995344       -40.64999
1.252                  0.9958678       -41.45039
1.256                  0.9924894       -42.16752
1.26                   0.9900032       -42.81425
1.264                   0.988873       -43.41752
1.268                  0.9893312       -44.01398
1.272                  0.9913282       -44.64319
1.276                  0.9945349       -45.34014
1.28                   0.9983986        -46.1285
1.284                    1.00224       -47.01649
1.288                   1.005372       -47.99565
1.292                   1.007218       -49.04251
1.296                   1.007412       -50.12253
1.3                      1.00586        -51.1955
1.304                   1.002768       -52.22176
1.308                  0.9986146       -53.16856
1.312                  0.9940844       -54.01601
1.316                  0.9899571       -54.76153
1.32                   0.9869742       -55.42177
1.324                   0.985701       -56.03094
1.328                  0.9864123       -56.63528
1.332                  0.9890295       -57.28448
1.336                  0.9931253       -58.02196
1.34                   0.9979961       -58.87664
1.344                   1.002785       -59.85779
1.348                    1.00663       -60.95382
1.352                   1.008813       -62.13466
1.356                   1.008876       -63.35668
1.36                    1.006708        -64.5692
1.364                    1.00257       -65.72203
1.368                  0.9970733       -66.77321
1.372                   0.991094       -67.69668
1.376                  0.9856412       -68.48836
1.38                   0.9816833       -69.16933
1.384                  0.9799672       -69.78432
1.388                  0.9808628       -70.39468
1.392                  0.9842745        -71.0669
1.396                  0.9896414       -71.85934
1.4                     0.996032       -72.81094
1.404                   1.002307       -73.93443
1.408                   1.007312       -75.21493
1.412                   1.010076       -76.61318
1.416                   1.009963       -78.07193
1.42                     1.00679       -79.52385
1.424                   1.000872       -80.90083
1.428                  0.9930053       -82.14385
1.432                  0.9843745       -83.21354
1.436                  0.9763861        -84.0998
1.44                   0.9704364       -84.82849
1.444                  0.9676484        -85.4616
1.448                  0.9686299       -86.08875
1.452                  0.9733156       -86.81035
1.456                  0.9809464       -87.71701
1.46                   0.9901889       -88.87164
1.464                  0.9993658        -90.2987
1.468                   1.006736       -91.98243
1.472                   1.010769       -93.87157
1.476                   1.010382       -95.88781
1.48                    1.005107       -97.93555
1.484                  0.9952002       -99.91265
1.488                  0.9816678       -101.7228
1.492                  0.9661979       -103.2907
1.496                  0.9509828       -104.5806
1.5                    0.9384041       -105.6148
1.504                   0.930599       -106.4862
1.508                  0.9289724       -107.3545
1.512                  0.9337908       -108.4208
1.516                  0.9439982       -109.8875
1.52                   0.9573223       -111.9181
1.524                  0.9706173       -114.6145
1.528                  0.9803094       -118.0155
1.532                  0.9828206        -122.109
1.536                  0.9749021       -126.8513
1.54                   0.9538608       -132.1831
1.544                  0.9176988       -138.0427
1.548                  0.8651864       -144.3747
1.552                  0.7958851       -151.1379
1.556                   0.710139        -158.315
1.56                   0.6090386       -165.9321
1.564                  0.4943749       -174.1087
1.568                  0.3686165        176.7784
1.572                  0.2351002        165.3496
1.576                  0.1006946        142.4583
1.58                  0.06897418        21.72217
1.584                  0.1990505       -13.21271
1.588                   0.333746       -25.95048
1.592                  0.4618156       -35.46466
1.596                  0.5795486       -43.84307
1.6                    0.6843023       -51.60248
1.604                  0.7741244       -58.90588
1.608                  0.8477508       -65.79733
1.612                  0.9046487       -72.26893
1.616                  0.9450548       -78.28532
1.62                   0.9699907       -83.79487
1.624                  0.9812468       -88.73755
1.628                  0.9813243       -93.05322
1.632                  0.9733163         -96.693
1.636                  0.9607087       -99.63486
1.64                   0.9470825       -101.9015
1.644                  0.9357178       -103.5754
1.648                  0.9291531       -104.8024
1.652                  0.9288071       -105.7748
1.656                  0.9347981       -106.6964
1.66                   0.9460435       -107.7408
1.664                  0.9606064       -109.0211
1.668                  0.9761647       -110.5803
1.672                  0.9904616       -112.3993
1.676                   1.001652       -114.4145
1.68                    1.008517       -116.5359
1.684                   1.010558       -118.6638
1.688                   1.008001       -120.7008
1.692                   1.001714       -122.5632
1.696                  0.9930652       -124.1904
1.7                    0.9837111       -125.5537
1.704                  0.9753461       -126.6623
1.708                  0.9694276       -127.5643
1.712                   0.966931       -128.3393
1.716                  0.9681891       -129.0838
1.72                   0.9728608       -129.8917
1.724                  0.9800333       -130.8355
1.728                  0.9884302       -131.9555
1.732                  0.9966609       -133.2562
1.736                   1.003461       -134.7107
1.74                    1.007876       -136.2689
1.744                   1.009386       -137.8675
1.748                   1.007947         -139.44
1.752                   1.003977       -140.9253
1.756                  0.9982724       -142.2763
1.76                   0.9918787       -143.4665
1.764                   0.985922       -144.4945
1.768                  0.9814218       -145.3852
1.772                  0.9791185       -146.1858
1.776                    0.97935       -146.9572
1.78                   0.9820024       -147.7624
1.784                  0.9865508       -148.6542
1.788                  0.9921732       -149.6662
1.792                  0.9979114       -150.8084
1.796                   1.002838        -152.068
1.8                     1.006208       -153.4135
1.804                    1.00756       -154.8014
1.808                   1.006773        -156.183
1.812                   1.004073        -157.512
1.816                  0.9999839       -158.7507
1.82                   0.9952377        -159.876
1.824                  0.9906569       -160.8829
1.828                  0.9870158       -161.7857
1.832                  0.9849102       -162.6158
1.836                  0.9846577       -163.4161
1.84                   0.9862487       -164.2327
1.844                  0.9893586       -165.1068
1.848                   0.993419       -166.0669
1.852                  0.9977264       -167.1249
1.856                   1.001568       -168.2753
1.86                    1.004338       -169.4975
1.864                    1.00563       -170.7599
1.868                   1.005291       -172.0256
1.872                   1.003436       -173.2581
1.876                    1.00042       -174.4266
1.88                   0.9967798       -175.5105
1.884                  0.9931394        -176.503
1.888                  0.9901107       -177.4122
1.892                  0.9881884       -178.2595
1.896                  0.9876687       -179.0763
1.9                     0.988601       -179.8981
1.904                  0.9907886        179.2423
1.908                  0.9938293          178.32
1.912                  0.9971943        177.3227
1.916                   1.000322        176.2511
1.92                    1.002711        175.1187
1.924                   1.003999        173.9484
1.928                   1.004016        172.7684
1.932                   1.002798        171.6083
1.936                   1.000584        170.4936
1.94                   0.9977629        169.4429
1.944                  0.9948175        168.4643
1.948                  0.9922376        167.5544
1.952                   0.990442        166.6986
1.956                  0.9897081        165.8742
1.96                    0.990129        165.0537
1.964                  0.9916014        164.2106
1.968                  0.9938507        163.3231
1.972                  0.9964833        162.3784
1.976                  0.9990566         161.374
1.98                    1.001154        160.3176
1.984                   1.002451        159.2251
1.988                   1.002762        158.1181
1.992                   1.002064        157.0199
1.996                   1.000496        155.9522
2                      0.9983324        154.9319
2.004                  0.9959368        153.9681
2.008                  0.9937006        153.0612
2.012                  0.9919802        152.2026
2.016                  0.9910396        151.3765
2.02                    0.991008        150.5622
2.024                  0.9918632        149.7381
2.028                  0.9934384        148.8852
2.032                  0.9954565        147.9903
2.036                  0.9975781        147.0479
2.04                    0.999459        146.0605
2.044                   1.000805        145.0381
2.048                   1.001415        143.9958
2.052                    1.00121        142.9518
2.056                   1.000239        141.9243
2.06                   0.9986683        140.9288
2.064                  0.9967544        139.9758
2.068                  0.9948005        139.0693
2.072                  0.9931092        138.2064
2.076                  0.9919361        137.3774
2.08                   0.9914479         136.568
2.084                  0.9917013        135.7612
2.088                  0.9926344        134.9402
2.092                  0.9940807        134.0914
2.096                   0.995799         133.206
2.1                    0.9975122        132.2814
2.104                  0.9989514        131.3215
2.108                  0.9998948        130.3352
2.112                     1.0002        129.3356
2.116                  0.9998225        128.3377
2.12                   0.9988191        127.3561
2.124                  0.9973386        126.4029
2.128                  0.9955988        125.4865
2.132                   0.993854        124.6095
2.136                  0.9923574        123.7693
2.14                   0.9913236        122.9575
2.144                   0.990897        122.1618
2.148                  0.9911303        121.3675
2.152                  0.9919761        120.5598
2.156                  0.9932962        119.7261
2.16                   0.9948802        118.8581
2.164                  0.9964783        117.9522
2.168                  0.9978368        117.0109
2.172                  0.9987355        116.0416
2.176                  0.9990174        115.0562
2.18                   0.9986135        114.0689
2.184                   0.997553        113.0944
2.188                  0.9959617         112.146
2.192                  0.9940468        111.2338
2.196                  0.9920701        110.3625
2.2                    0.9903106        109.5311
2.204                  0.9890248        108.7321
2.208                  0.9884056        107.9527
2.212                  0.9885499        107.1763
2.216                  0.9894399        106.3851
2.22                   0.9909392        105.5626
2.224                   0.992811        104.6964
2.228                  0.9947489        103.7803
2.232                  0.9964225        102.8153
2.236                  0.9975261        101.8096
2.24                    0.997826        100.7775
2.244                  0.9971998        99.73776
2.248                  0.9956607        98.71101
2.252                  0.9933642        97.71653
2.256                  0.9905928        96.76941
2.26                   0.9877223         95.8777
2.264                  0.9851666         95.0404
2.268                  0.9833151        94.24673
2.272                  0.9824638        93.47697
2.276                  0.9827598        92.70502
2.28                   0.9841646        91.90253
2.284                  0.9864483        91.04354
2.288                  0.9892179        90.10911
2.292                  0.9919718        89.09052
2.296                  0.9941773         87.9911
2.3                    0.9953542        86.82592
2.304                  0.9951532         85.6198
2.308                  0.9934198        84.40413
2.312                  0.9902314        83.21233
2.316                  0.9859031        82.07492
2.32                   0.9809574        81.01417
2.324                  0.9760578        80.03935
2.328                  0.9719081        79.14308
2.332                  0.9691343        78.30031
2.336                  0.9681634        77.47062
2.34                   0.9691277        76.60385
2.344                  0.9718145        75.64856
2.348                  0.9756786        74.56114
2.352                   0.979915        73.31338