! TOUCHSTONE file generated by CST MICROWAVE STUDIO
! Date and time: Tue Jun 14 14:10:54 2022
! Project name: AppElm_antenne_patch_FR4.cst
! Parameters = {L=45; W=58.5; e=0.035; h=1.6; lambda=0.190476; ls=120; w0=2.54; w1=0.847; ws=150; y0=18; y1=23.8}
! Header version: 2018
! Port assignment regex: !\s*Touchstone port\s*([0-9]+)\s*=\s*(CST MWS port|CST DS port)\s*([0-9]+|Zmin|Zmax)\s*\(\"(.*)\"\)(\s*mode\s*([0-9]+))?.*
! Touchstone port assignment:
! Touchstone port 1 = CST MWS port 1 ("")
# GHz S MA R 50
0                      0.9875547              -0
0.004                  0.9882924       -9.978849
0.008                  0.9904041       -19.86462
0.012                  0.9936005       -29.56907
0.016                    0.99745       -39.01276
0.02                    1.001442       -48.12772
0.024                   1.005061       -56.85852
0.028                   1.007856       -65.16221
0.032                     1.0095        -73.0076
0.036                   1.009827       -80.37431
0.04                     1.00885       -87.25212
0.044                   1.006756       -93.64063
0.048                   1.003875       -99.54942
0.052                   1.000635       -104.9981
0.056                  0.9974993       -110.0164
0.06                   0.9949025       -114.6431
0.064                  0.9931862        -118.924
0.068                  0.9925512       -122.9093
0.072                  0.9930318       -126.6493
0.076                  0.9944955       -130.1905
0.08                   0.9966712       -133.5719
0.084                  0.9991954       -136.8228
0.088                   1.001672       -139.9616
0.092                   1.003735       -142.9963
0.096                   1.005097       -145.9265
0.1                      1.00559       -148.7459
0.104                   1.005185       -151.4451
0.108                    1.00399       -154.0151
0.112                   1.002227       -156.4497
0.116                   1.000197       -158.7483
0.12                   0.9982319       -160.9163
0.124                  0.9966406       -162.9663
0.128                  0.9956619       -164.9163
0.132                  0.9954283       -166.7882
0.136                  0.9959477       -168.6047
0.14                   0.9971065       -170.3866
0.144                   0.998692       -172.1499
0.148                   1.000432       -173.9041
0.152                   1.002039        -175.652
0.156                   1.003258       -177.3896
0.16                    1.003907       -179.1077
0.164                     1.0039        179.2057
0.168                    1.00326        177.5635
0.172                   1.002111        175.9768
0.176                   1.000656        174.4529
0.18                   0.9991422         172.994
0.184                  0.9978216        171.5965
0.188                  0.9969077        170.2512
0.192                  0.9965415         168.945
0.196                  0.9967694        167.6627
0.2                    0.9975375        166.3893
0.204                  0.9987031        165.1128
0.208                   1.000061        163.8254
0.212                   1.001378        162.5247
0.216                   1.002437         161.214
0.22                    1.003065        159.9009
0.224                   1.003168        158.5962
0.228                   1.002737         157.312
0.232                   1.001856         156.059
0.236                    1.00068        154.8455
0.24                   0.9994122        153.6753
0.244                  0.9982667        152.5474
0.248                  0.9974357        151.4557
0.252                  0.9970546        150.3902
0.256                   0.997181        149.3389
0.26                   0.9977845        148.2894
0.264                  0.9987545        147.2309
0.268                  0.9999198        146.1567
0.272                   1.001079        145.0642
0.276                   1.002035         143.956
0.28                    1.002627        142.8387
0.284                   1.002761        141.7221
0.288                   1.002419        140.6171
0.292                   1.001664        139.5341
0.296                   1.000629        138.4811
0.3                    0.9994935        137.4624
0.304                  0.9984523        136.4777
0.308                  0.9976835        135.5224
0.312                  0.9973165        134.5879
0.316                  0.9974107        133.6634
0.32                   0.9979455        132.7377
0.324                  0.9988248         131.801
0.328                  0.9998936        130.8469
0.332                   1.000966        129.8729
0.336                   1.001858        128.8812
0.34                    1.002417         127.878
0.344                    1.00255        126.8724
0.348                   1.002236        125.8749
0.352                   1.001532        124.8953
0.356                   1.000561        123.9415
0.36                   0.9994918        123.0179
0.364                  0.9985095        122.1244
0.368                  0.9977839        121.2568
0.372                  0.9974404        120.4071
0.376                  0.9975373         119.565
0.38                   0.9980565          118.72
0.384                  0.9989054        117.8627
0.388                  0.9999354        116.9868
0.392                   1.000968        116.0901
0.396                   1.001823        115.1748
0.4                     1.002353        114.2469
0.404                   1.002469        113.3154
0.408                   1.002151        112.3905
0.412                   1.001455        111.4819
0.416                   1.000502        110.5973
0.42                    0.999459         109.741
0.424                  0.9985069        108.9129
0.428                  0.9978129        108.1087
0.432                  0.9974986        107.3206
0.436                  0.9976192        106.5384
0.44                   0.9981537        105.7516
0.444                  0.9990083        104.9511
0.448                   1.000033        104.1309
0.452                   1.001049         103.289
0.456                   1.001879        102.4278
0.46                    1.002378        101.5535
0.464                   1.002459        100.6752
0.468                   1.002106        99.80335
0.472                    1.00138        98.94753
0.476                   1.000407        98.11535
0.48                   0.9993558        97.31085
0.484                  0.9984098        96.53372
0.488                  0.9977354        95.77937
0.492                  0.9974515        95.03966
0.496                  0.9976088         94.3043
0.5                      0.99818        93.56262
0.504                  0.9990651        92.80566
0.508                   1.000108        92.02755
0.512                   1.001126        91.22667
0.516                   1.001939         90.4058
0.52                    1.002404        89.57168
0.524                   1.002438        88.73376
0.528                   1.002032         87.9026
0.532                   1.001255        87.08813
0.536                   1.000241        86.29776
0.54                   0.9991669        85.53526
0.544                  0.9982208        84.79988
0.548                  0.9975703        84.08651
0.552                  0.9973316        83.38643
0.556                  0.9975489         82.6889
0.56                   0.9981856        81.98304
0.564                  0.9991307        81.25983
0.568                   1.000218        80.51365
0.572                   1.001257        79.74334
0.576                   1.002064        78.95231
0.58                    1.002495        78.14795
0.584                   1.002472         77.3403
0.588                   1.001997        76.54042
0.592                    1.00115        75.75838
0.596                   1.000078        75.00158
0.6                    0.9989665        74.27337
0.604                   0.998013        73.57246
0.608                  0.9973871        72.89293
0.612                  0.9972021        72.22534
0.616                  0.9974935        71.55829
0.62                   0.9982123        70.88056
0.624                  0.9992333        70.18302
0.628                   1.000377        69.46041
0.632                   1.001441        68.71215
0.636                   1.002236        67.94246
0.64                    1.002621        67.15956
0.644                   1.002523        66.37434
0.648                   1.001956         65.5984
0.652                   1.001015        64.84208
0.656                  0.9998625        64.11267
0.66                   0.9987004        63.41308
0.664                  0.9977342         62.7412
0.668                  0.9971371        62.09015
0.672                  0.9970181        61.44951
0.676                  0.9974022         60.8071
0.68                   0.9982246        60.15116
0.684                  0.9993418        59.47258
0.688                   1.000557        58.76641
0.692                   1.001656        58.03285
0.696                   1.002442         57.2771
0.7                     1.002774        56.50846
0.704                   1.002589        55.73875
0.708                   1.001914        54.98027
0.712                   1.000865        54.24365
0.716                  0.9996214        53.53607
0.72                    0.998403        52.85981
0.724                  0.9974268        52.21178
0.728                  0.9968687        51.58396
0.732                  0.9968324        50.96475
0.736                  0.9973294        50.34099
0.74                   0.9982753        49.70042
0.744                   0.999505        49.03388
0.748                   1.000802        48.33693
0.752                   1.001935        47.61069
0.756                   1.002703        46.86158
0.76                    1.002964        46.10015
0.764                   1.002667        45.33936
0.768                   1.001857        44.59232
0.772                   1.000671        43.86999
0.776                  0.9993135        43.17931
0.78                   0.9980237        42.52184
0.784                   0.997031        41.89331
0.788                  0.9965149        41.28432
0.792                  0.9965719        40.68187
0.796                  0.9971971         40.0717
0.8                    0.9982832        39.44097
0.804                  0.9996396        38.78049
0.808                   1.001026        38.08647
0.812                   1.002195        37.36114
0.816                   1.002936         36.6123
0.82                    1.003112        35.85201
0.824                   1.002684        35.09452
0.828                    1.00172        34.35378
0.832                   1.000382        33.64113
0.836                  0.9989022        32.96318
0.84                   0.9975416        32.32057
0.844                  0.9965441        31.70761
0.848                  0.9960922        31.11325
0.852                  0.9962727        30.52286
0.856                  0.9970607        29.92096
0.86                   0.9983211        29.29403
0.864                  0.9998335        28.63296
0.868                    1.00133        27.93475
0.872                   1.002545        27.20295
0.876                   1.003258        26.44704
0.88                    1.003338        25.68079
0.884                    1.00276        24.91991
0.888                   1.001617        24.17939
0.892                   1.000105         23.4709
0.896                   0.998485        22.80067
0.9                    0.9970446        22.16823
0.904                  0.9960427        21.56625
0.908                  0.9956646        20.98173
0.912                  0.9959857        20.39822
0.916                  0.9969563        19.79882
0.92                   0.9984095        19.16932
0.924                   1.000091        18.50077
0.928                   1.001701         17.7911
0.932                   1.002952        17.04548
0.936                   1.003617        16.27532
0.94                    1.003568        15.49637
0.944                   1.002802        14.72604
0.948                   1.001442        13.98043
0.952                  0.9997192        13.27159
0.956                   0.997932        12.60525
0.96                   0.9963971         11.9796
0.964                  0.9953919        11.38534
0.968                  0.9951035        10.80718
0.972                  0.9955928        10.22652
0.976                  0.9967819        9.624812
0.98                   0.9984657        8.987066
0.984                   1.000349        8.304535
0.988                   1.002097        7.576296
0.992                   1.003397        6.809363
0.996                   1.004011        6.017418
1                        1.00382          5.2185
1.004                   1.002842        4.431973
1.008                   1.001238        3.675261
1.012                  0.9992796        2.960811
1.016                   0.997308        2.293744
1.02                   0.9956741        1.670668
1.024                  0.9946758        1.079965
1.028                   0.994502       0.5036632
1.032                   0.995196     -0.07938104
1.036                  0.9966459      -0.6895826
1.04                   0.9986014       -1.342829
1.044                   1.000719       -2.047572
1.048                   1.002623       -2.803351
1.052                   1.003971       -3.600936
1.056                   1.004513       -4.423951
1.06                    1.004138       -5.251637
1.064                   1.002894        -6.06229
1.068                   1.000981       -6.836908
1.072                  0.9987233       -7.562513
1.076                  0.9965124       -8.234684
1.08                   0.9947412       -8.858609
1.084                  0.9937326       -9.448764
1.088                  0.9936789        -10.0263
1.092                  0.9946031       -10.61542
1.096                  0.9963527       -11.23887
1.1                    0.9986245       -11.91359
1.104                   1.001018       -12.64778
1.108                   1.003106       -13.43934
1.112                    1.00451       -14.27642
1.116                   1.004968       -15.13949
1.12                    1.004377       -16.00452
1.124                   1.002817       -16.84695
1.128                   1.000539       -17.64584
1.132                  0.9979287       -18.38753
1.136                  0.9954387       -19.06834
1.14                    0.993514       -19.69577
1.144                  0.9925094       -20.28761
1.148                   0.992622       -20.86904
1.152                  0.9938511       -21.46812
1.156                  0.9959948       -22.11046
1.16                   0.9986832       -22.81448
1.164                   1.001445       -23.58806
1.168                   1.003789        -24.4272
1.172                   1.005292       -25.31688
1.176                   1.005668        -26.2336
1.18                    1.004826       -27.14928
1.184                   1.002883       -28.03576
1.188                    1.00015       -28.86947
1.192                  0.9970875       -29.63565
1.196                  0.9942286       -30.33135
1.2                    0.9920851       -30.96669
1.204                  0.9910551       -31.56365
1.208                  0.9913461       -32.15244
1.212                  0.9929303       -32.76606
1.216                  0.9955463       -33.43395
1.22                   0.9987416       -34.17654
1.224                   1.001954        -35.0015
1.228                   1.004609       -35.90258
1.232                   1.006222       -36.86082
1.236                   1.006478       -37.84779
1.24                    1.005291       -38.83011
1.244                   1.002823       -39.77478
1.248                  0.9994628       -40.65458
1.252                  0.9957697       -41.45295
1.256                  0.9923817       -42.16756
1.26                   0.9899048       -42.81171
1.264                  0.9888017       -43.41282
1.268                  0.9893006       -44.00794
1.272                  0.9913446       -44.63693
1.276                  0.9945965       -45.33478
1.28                   0.9984953       -46.12505
1.284                   1.002355       -47.01562
1.288                   1.005486       -47.99758
1.292                   1.007312         -49.047
1.296                   1.007467        -50.1289
1.3                     1.005867       -51.20274
1.304                   1.002724       -52.22869
1.308                  0.9985256         -53.174
1.312                  0.9939645       -54.01896
1.316                  0.9898267       -54.76141
1.32                   0.9868567       -55.41851
1.324                  0.9856181       -56.02508
1.328                  0.9863802       -56.62787
1.332                  0.9890559       -57.27689
1.336                  0.9932073       -58.01563
1.34                    0.998121       -58.87279
1.344                   1.002932       -59.85722
1.348                   1.006775        -60.9568
1.352                    1.00893       -62.14088
1.356                   1.008945       -63.36527
1.36                    1.006714       -64.57893
1.364                    1.00251       -65.73135
1.368                  0.9969546       -66.78063
1.372                  0.9909345        -67.7009
1.376                  0.9854672       -68.48856
1.38                   0.9815248        -69.1654
1.384                  0.9798529       -69.77689
1.388                   0.980815       -70.38511
1.392                  0.9843035       -71.05698
1.396                  0.9897447       -71.85098
1.4                    0.9961935       -72.80578
1.404                     1.0025       -73.93355
1.408                   1.007505        -75.2187
1.412                   1.010234       -76.62123
1.416                    1.01006        -78.0832
1.42                    1.006806       -79.53672
1.424                   1.000801       -80.91333
1.428                  0.9928559       -82.15388
1.432                  0.9841702       -83.21925
1.436                  0.9761626       -84.09996
1.44                   0.9702363       -84.82282
1.444                   0.967514       -85.45092
1.448                  0.9685945       -86.07498
1.452                  0.9733971       -86.79617
1.456                  0.9811432       -87.70532
1.46                   0.9904799       -88.86494
1.464                   0.999714       -90.29874
1.468                   1.007094       -91.98995
1.472                   1.011089       -93.88631
1.476                   1.010617       -95.90849
1.48                    1.005224       -97.96003
1.484                  0.9951843       -99.93818
1.488                  0.9815229       -101.7462
1.492                  0.9659527       -103.3089
1.496                  0.9506881       -104.5909
1.5                    0.9381282       -105.6161
1.504                  0.9304169       -106.4792
1.508                  0.9289516       -107.3422
1.512                  0.9339768       -108.4082
1.516                  0.9444042       -109.8802
1.52                   0.9579269       -111.9217
1.524                  0.9713678       -114.6337
1.528                   0.981131       -118.0535
1.532                   0.983626       -122.1679
1.536                  0.9755996       -126.9325
1.54                   0.9543627       -132.2875
1.544                  0.9179267       -138.1712
1.548                  0.8650748       -144.5288
1.552                  0.7953859       -151.3201
1.556                  0.7092224       -158.5298
1.56                   0.6076969       -166.1881
1.564                  0.4926253       -174.4234
1.568                  0.3665103        176.3636
1.572                   0.232765        164.7012
1.576                 0.09874314        140.6971
1.58                  0.07252027        20.86411
1.584                  0.2027745       -13.14831
1.588                  0.3374663       -25.92906
1.592                  0.4654871       -35.48652
1.596                  0.5831003       -43.89552
1.6                    0.6876574       -51.67667
1.604                  0.7772097       -58.99571
1.608                   0.850502       -65.89817
1.612                   0.907015       -72.37696
1.616                  0.9470019       -78.39704
1.62                   0.9715045       -83.90689
1.624                  0.9823349        -88.8464
1.628                  0.9820175       -93.15536
1.632                  0.9736688       -96.78501
1.636                  0.9607954        -99.7137
1.64                   0.9469932       -101.9651
1.644                  0.9355485       -103.6234
1.648                  0.9289926       -104.8362
1.652                  0.9287242       -105.7978
1.656                  0.9348322       -106.7131
1.66                   0.9462013       -107.7558
1.664                  0.9608665       -109.0382
1.668                  0.9764861        -110.602
1.672                  0.9907945       -112.4266
1.676                   1.001947       -114.4472
1.68                    1.008731       -116.5727
1.684                   1.010664       -118.7029
1.688                   1.007986         -120.74
1.692                   1.001582       -122.6001
1.696                  0.9928361        -124.223
1.7                    0.9834175       -125.5804
1.704                  0.9750283       -126.6823
1.708                  0.9691262       -127.5778
1.712                  0.9666808       -128.3476
1.716                  0.9680125       -129.0889
1.72                   0.9727647       -129.8957
1.724                  0.9800096       -130.8406
1.728                  0.9884576       -131.9633
1.732                  0.9967112       -133.2675
1.736                   1.003503       -134.7256
1.74                    1.007883       -136.2869
1.744                   1.009336       -137.8876
1.748                   1.007829       -139.4607
1.752                    1.00379       -140.9452
1.756                  0.9980265        -142.294
1.76                   0.9915918       -143.4808
1.764                  0.9856177       -144.5049
1.768                   0.981125       -145.3916
1.772                  0.9788517       -146.1888
1.776                  0.9791285       -146.9579
1.78                   0.9818326       -147.7622
1.784                  0.9864294       -148.6544
1.788                  0.9920884       -149.6678
1.792                  0.9978459       -150.8121
1.796                   1.002773        -152.074
1.8                     1.006124       -153.4215
1.804                   1.007443       -154.8107
1.808                   1.006615       -156.1928
1.812                   1.003873       -157.5211
1.816                  0.9997471       -158.7584
1.82                   0.9949762       -159.8814
1.824                   0.990386       -160.8857
1.828                  0.9867522       -161.7858
1.832                  0.9846691       -162.6136
1.836                  0.9844496       -163.4122
1.84                   0.9860786        -164.228
1.844                  0.9892253       -165.1022
1.848                  0.9933154       -166.0632
1.852                  0.9976412       -167.1225
1.856                   1.001488       -168.2744
1.86                    1.004252        -169.498
1.864                   1.005527       -170.7613
1.868                   1.005166       -172.0275
1.872                   1.003286       -173.2598
1.876                    1.00025       -174.4274
1.88                   0.9965954         -175.51
1.884                  0.9929508       -176.5009
1.888                  0.9899282       -177.4084
1.892                  0.9880215       -178.2543
1.896                   0.987524       -179.0701
1.9                    0.9884819       -179.8914
1.904                  0.9906942        179.2489
1.908                  0.9937556        178.3261
1.912                  0.9971346         177.328
1.916                   1.000268        176.2555
1.92                    1.002656        175.1222
1.924                   1.003937        173.9512
1.928                   1.003943        172.7709
1.932                   1.002713        171.6108
1.936                   1.000489        170.4966
1.94                   0.9976614        169.4465
1.944                  0.9947147        168.4687
1.948                   0.992139        167.5596
1.952                  0.9903525        166.7046
1.956                  0.9896315        165.8807
1.96                   0.9900667        165.0606
1.964                  0.9915535        164.2174
1.968                  0.9938153        163.3297
1.972                  0.9964576        162.3847
1.976                  0.9990373        161.3799
1.98                    1.001138         160.323
1.984                   1.002436        159.2302
1.988                   1.002746         158.123
1.992                   1.002047        157.0247
1.996                   1.000479         155.957
2                      0.9983158        154.9367
2.004                  0.9959215         153.973
2.008                  0.9936875        153.0662
2.012                  0.9919698        152.2078
2.016                  0.9910323        151.3817
2.02                   0.9910038        150.5675
2.024                  0.9918619        149.7435
2.028                  0.9934403        148.8907
2.032                  0.9954624        147.9959
2.036                  0.9975891        147.0536
2.04                   0.9994766        146.0664
2.044                   1.000831         145.044
2.048                    1.00145        144.0016
2.052                   1.001254        142.9575
2.056                   1.000292        141.9297
2.06                   0.9987277        140.9337
2.064                  0.9968172        139.9801
2.068                  0.9948631         139.073
2.072                   0.993168        138.2096
2.076                  0.9919876        137.3803
2.08                   0.9914908        136.5708
2.084                  0.9917357        135.7642
2.088                  0.9926627        134.9438
2.092                  0.9941079        134.0957
2.096                  0.9958311         133.211
2.1                    0.9975556        132.2872
2.104                  0.9990117        131.3278
2.108                  0.9999761        130.3417
2.112                   1.000303        129.3419
2.116                  0.9999457        128.3432
2.12                   0.9989568        127.3605
2.124                  0.9974831         126.406
2.128                  0.9957409        125.4882
2.132                  0.9939845        124.6101
2.136                  0.9924692         123.769
2.14                    0.991413         122.957
2.144                  0.9909646        122.1618
2.148                  0.9911814        121.3685
2.152                  0.9920201        120.5622
2.156                  0.9933451        119.7302
2.16                   0.9949465        118.8636
2.164                  0.9965733        117.9588
2.168                  0.9979679        117.0179
2.172                  0.9989045        116.0483
2.176                  0.9992207        115.0617
2.18                   0.9988417        114.0725
2.184                  0.9977924        113.0958
2.188                  0.9961966        112.1452
2.192                  0.9942618         111.231
2.196                  0.9922531        110.3584
2.2                    0.9904556        109.5267
2.204                  0.9891332        108.7284
2.208                  0.9884867        107.9507
2.212                  0.9886197        107.1768
2.216                  0.9895181        106.3882
2.22                   0.9910473        105.5682
2.224                  0.9929669        104.7038
2.228                  0.9949647        103.7883
2.232                  0.9967014        102.8226
2.236                  0.9978618        101.8149
2.24                    0.998203        100.7797
2.244                   0.997596        99.73632
2.248                  0.9960504        98.70576
2.252                  0.9937228        97.70801
2.256                  0.9909012        96.75868
2.26                   0.9879702        95.86628
2.264                   0.985356        95.02999
2.268                  0.9834603        94.23889
2.272                  0.9825901        93.47283
2.276                  0.9828992        92.70505
2.28                   0.9843507        91.90635
2.284                  0.9867106        91.05001
2.288                  0.9895753        90.11643
2.292                  0.9924298        89.09663
2.296                  0.9947261        87.99395
2.3                    0.9959696        86.82382
2.304                  0.9958007        85.61176
2.308                  0.9940593        84.38997
2.312                  0.9908243        83.19289
2.316                   0.986419        82.05189
2.32                   0.9813808        80.98995
2.324                  0.9763919        80.01666
2.328                  0.9721773        79.12453
2.332                  0.9693811        78.28786
2.336                  0.9684433        77.46504
2.34                   0.9694998        76.60451
2.344                  0.9723316        75.65348
2.348                  0.9763775        74.56718
2.352                  0.9808095         73.3168