! TOUCHSTONE file generated by CST MICROWAVE STUDIO
! Date and time: Tue Jun 14 14:10:46 2022
! Project name: AppElm_antenne_patch_FR4.cst
! Parameters = {L=45; W=58.5; e=0.035; h=1.6; lambda=0.190476; ls=120; w0=2.54; w1=0.847; ws=102; y0=18; y1=23.8}
! Header version: 2018
! Port assignment regex: !\s*Touchstone port\s*([0-9]+)\s*=\s*(CST MWS port|CST DS port)\s*([0-9]+|Zmin|Zmax)\s*\(\"(.*)\"\)(\s*mode\s*([0-9]+))?.*
! Touchstone port assignment:
! Touchstone port 1 = CST MWS port 1 ("")
# GHz S MA R 50
0                      0.9876922              -0
0.004                  0.9884249       -9.978277
0.008                  0.9905219       -19.86341
0.012                   0.993695        -29.5671
0.016                   0.997514       -39.00986
0.02                    1.001471       -48.12363
0.024                   1.005053       -56.85294
0.028                   1.007813       -65.15482
0.032                   1.009426       -72.99812
0.036                    1.00973       -80.36249
0.04                    1.008742       -87.23781
0.044                   1.006649       -93.62387
0.048                   1.003784       -99.53046
0.052                   1.000571       -104.9775
0.056                  0.9974732       -109.9948
0.06                   0.9949194       -114.6214
0.064                  0.9932458       -118.9033
0.068                  0.9926475       -122.8904
0.072                  0.9931527        -126.633
0.076                  0.9946253       -130.1772
0.08                    0.996792       -133.5617
0.084                  0.9992905       -136.8153
0.088                   1.001729        -139.956
0.092                   1.003744       -142.9917
0.096                   1.005058       -145.9219
0.1                     1.005509       -148.7403
0.104                   1.005074       -151.4376
0.108                   1.003866       -154.0052
0.112                    1.00211       -156.4375
0.116                   1.000105       -158.7339
0.12                   0.9981795       -160.9006
0.124                   0.996636       -162.9502
0.128                  0.9957057       -164.9011
0.132                  0.9955128       -166.7749
0.136                  0.9960579       -168.5942
0.14                   0.9972232       -170.3792
0.144                  0.9987947       -172.1454
0.148                   1.000502       -173.9022
0.152                   1.002063       -175.6516
0.156                   1.003232       -177.3895
0.16                    1.003834       -179.1068
0.164                    1.00379        179.2085
0.168                   1.003132        177.5689
0.172                   1.001985         175.985
0.176                   1.000553        174.4636
0.18                   0.9990803        173.0065
0.184                  0.9978114        171.6096
0.188                   0.996951        170.2637
0.192                   0.996631        168.9557
0.196                  0.9968897        167.6706
0.2                    0.9976677         166.394
0.204                  0.9988206        165.1143
0.208                   1.000145        163.8242
0.212                   1.001414        162.5219
0.216                   1.002418        161.2108
0.22                    1.002995        159.8986
0.224                   1.003058         158.596
0.228                   1.002607        157.3145
0.232                   1.001729        156.0646
0.236                   1.000579        154.8538
0.24                   0.9993544        153.6855
0.244                  0.9982639        152.5582
0.248                  0.9974893        151.4658
0.252                  0.9971561        150.3984
0.256                  0.9973127        149.3441
0.26                   0.9979236        148.2911
0.264                  0.9988764        147.2293
0.268                   1.000003        146.1524
0.272                   1.001108        145.0584
0.276                   1.002004        143.9501
0.28                    1.002542        142.8341
0.284                   1.002635        141.7199
0.288                   1.002275        140.6181
0.292                   1.001527        139.5385
0.296                   1.000523        138.4884
0.3                    0.9994382        137.4716
0.304                   0.998458        136.4875
0.308                  0.9977499        135.5312
0.312                  0.9974324        134.5944
0.316                  0.9975559        133.6666
0.32                   0.9980947        132.7371
0.324                  0.9989513         131.797
0.328                  0.9999747        130.8402
0.332                   1.000987        129.8648
0.336                   1.001815        128.8733
0.34                    1.002317        127.8718
0.344                   1.002411        126.8691
0.348                   1.002083        125.8751
0.352                   1.001392        124.8991
0.356                   1.000461        123.9483
0.36                   0.9994494        123.0265
0.364                  0.9985343        122.1332
0.368                  0.9978729        121.2642
0.372                  0.9975789        120.4117
0.376                  0.9977014        119.5659
0.38                    0.998217        118.7168
0.384                  0.9990339        117.8557
0.388                   1.000009        116.9772
0.392                   1.000972        116.0795
0.396                   1.001757        115.1648
0.4                     1.002228        114.2391
0.404                   1.002306         113.311
0.408                   1.001978        112.3901
0.412                   1.001303        111.4854
0.416                   1.000397        110.6039
0.42                   0.9994203        109.7493
0.424                  0.9985416        108.9211
0.428                  0.9979146        108.1151
0.432                  0.9976485        107.3236
0.436                  0.9977897        106.5372
0.44                   0.9983128        105.7461
0.444                  0.9991259        104.9419
0.448                   1.000086        104.1193
0.452                   1.001026        103.2768
0.456                   1.001781        102.4168
0.46                    1.002221        101.5454
0.464                   1.002268        100.6712
0.468                   1.001914         99.8038
0.472                   1.001221        98.95213
0.476                   1.000308        98.12304
0.48                   0.9993342        97.31993
0.484                    0.99847        96.54225
0.488                  0.9978667        95.78544
0.492                  0.9976306        95.04176
0.496                  0.9978034        94.30163
0.5                    0.9983548        93.55526
0.504                  0.9991879        92.79447
0.508                   1.000156        92.01412
0.512                    1.00109        91.21298
0.516                   1.001825        90.39386
0.52                    1.002231        89.56321
0.524                   1.002237        88.72988
0.528                    1.00184        87.90359
0.532                   1.001106        87.09335
0.536                   1.000164        86.30584
0.54                   0.9991775        85.54426
0.544                  0.9983188        84.80763
0.548                  0.9977398          84.091
0.552                  0.9975436        83.38621
0.556                  0.9977663        82.68332
0.56                   0.9983694        81.97241
0.564                   0.999248        81.24536
0.568                   1.000247        80.49726
0.572                   1.001192        79.72728
0.576                   1.001914        78.93876
0.58                    1.002287        78.13866
0.584                   1.002243        77.33629
0.588                   1.001787        76.54173
0.592                   1.000996        75.76413
0.596                   1.000008        75.01005
0.6                    0.9989941         74.2823
0.604                  0.9981334        73.57948
0.608                   0.997579        72.89594
0.612                  0.9974306        72.22293
0.616                  0.9977164        71.55005
0.62                    0.998388        70.86707
0.624                  0.9993281        70.16589
0.628                   1.000371        69.44186
0.632                   1.001333        68.69468
0.636                   1.002043        67.92837
0.64                    1.002374         67.1506
0.644                   1.002265        66.37135
0.648                   1.001731        65.60113
0.652                   1.000863        64.84926
0.656                  0.9998104        64.12221
0.66                   0.9987571        63.42239
0.664                  0.9978894        62.74767
0.668                  0.9973623        62.09165
0.672                  0.9972718        61.44474
0.676                  0.9976369        60.79588
0.68                   0.9983954        60.13449
0.684                  0.9994149        59.45243
0.688                   1.000516        58.74537
0.692                   1.001504        58.01371
0.696                   1.002203        57.26228
0.7                     1.002486        56.49965
0.704                   1.002301        55.73656
0.708                   1.001674        54.98414
0.712                   1.000713        54.25193
0.716                  0.9995836        53.54623
0.72                   0.9984833        52.86896
0.724                  0.9976079        52.21714
0.728                  0.9971148        51.58338
0.732                   0.997095        50.95712
0.736                  0.9975558        50.32648
0.74                   0.9984186        49.68047
0.744                  0.9995326         49.0109
0.748                   1.000701        48.31393
0.752                   1.001717        47.59069
0.756                   1.002398        46.84707
0.76                     1.00262        46.09272
0.764                   1.002339        45.33932
0.768                   1.001597        44.59867
0.772                   1.000519        43.88062
0.776                  0.9992936        43.19124
0.78                   0.9981335        42.53181
0.784                  0.9972455        41.89837
0.788                  0.9967896        41.28231
0.792                  0.9968507        40.67191
0.796                  0.9974219        40.05438
0.8                    0.9984053        39.41817
0.804                  0.9996281        38.75514
0.808                   1.000874        38.06195
0.812                    1.00192         37.3407
0.816                   1.002579        36.59847
0.82                    1.002727        35.84618
0.824                   1.002333        35.09663
0.828                   1.001457        34.36239
0.832                   1.000248        33.65356
0.836                  0.9989148        32.97601
0.84                   0.9976917        32.33019
0.844                  0.9967972        31.71094
0.848                  0.9963938        31.10826
0.852                  0.9965585        30.50901
0.856                  0.9972675        29.89934
0.86                    0.998399        29.26713
0.864                  0.9997548        28.60428
0.868                   1.001095         27.9081
0.872                    1.00218        27.18183
0.876                   1.002814        26.43398
0.88                    1.002879        25.67693
0.884                   1.002354         24.9248
0.888                   1.001324        24.19102
0.892                  0.9999629        23.48602
0.896                  0.9985066        22.81534
0.9                    0.9972121        22.17852
0.904                  0.9963115        21.56896
0.908                  0.9959702          20.975
0.912                  0.9962554        20.38192
0.916                  0.9971228        19.77459
0.92                   0.9984232         19.1403
0.924                  0.9999284        18.47101
0.928                   1.001371        17.76484
0.932                   1.002494        17.02636
0.936                   1.003091        16.26578
0.94                    1.003049        15.49719
0.944                   1.002365         14.7362
0.948                   1.001148        13.99726
0.952                  0.9996041        13.29115
0.956                  0.9980009        12.62304
0.96                   0.9966215        11.99131
0.964                  0.9957141        11.38769
0.968                  0.9954469        10.79855
0.972                  0.9958754        10.20729
0.976                  0.9969314        9.597321
0.98                   0.9984327        8.955191
0.984                   1.000116        8.272985
0.988                   1.001683        7.549752
0.992                   1.002852        6.791652
0.996                    1.00341        6.010852
1                       1.003246        5.223468
1.004                   1.002379        4.446847
1.008                   1.000946        3.696637
1.012                  0.9991923        2.984051
1.016                  0.9974211        2.313765
1.02                   0.9959469        1.682855
1.024                  0.9950367         1.08105
1.028                  0.9948617        0.492383
1.032                  0.9954638      -0.1019933
1.036                  0.9967453      -0.7203579
1.04                   0.9984858        -1.37704
1.044                    1.00038       -2.079802
1.048                   1.002091       -2.828467
1.052                   1.003312       -3.614993
1.056                   1.003816       -4.424872
1.06                    1.003502       -5.239585
1.064                   1.002406       -6.039674
1.068                   1.000706       -6.808029
1.072                   0.998688       -7.532886
1.076                  0.9967024       -8.210095
1.08                   0.9951003       -8.844101
1.084                  0.9941731       -9.447562
1.088                  0.9940962       -10.03927
1.092                  0.9948957       -10.64085
1.096                  0.9964401       -11.27259
1.1                    0.9984625       -11.94998
1.104                   1.000607       -12.68065
1.108                   1.002492       -13.46306
1.112                   1.003775         -14.287
1.116                   1.004218       -15.13514
1.12                    1.003721       -15.98605
1.124                    1.00235       -16.81769
1.128                   1.000326       -17.61111
1.132                  0.9979879        -18.3538
1.136                  0.9957414       -19.04213
1.14                   0.9939855       -19.68245
1.144                  0.9930415       -20.29031
1.148                  0.9930927       -20.88802
1.152                  0.9941466       -21.50058
1.156                  0.9960303       -22.15109
1.16                   0.9984199        -22.8564
1.164                   1.000896        -23.6241
1.168                   1.003019       -24.45117
1.172                   1.004403       -25.32463
1.176                   1.004788       -26.22374
1.18                    1.004079        -27.1234
1.184                   1.002374       -27.99824
1.188                  0.9999438       -28.82684
1.192                  0.9971963       -29.59553
1.196                  0.9946067       -30.30119
1.2                    0.9926362        -30.9523
1.204                  0.9916486       -31.56804
1.208                  0.9918396       -32.17517
1.212                  0.9931971       -32.80314
1.216                  0.9954979       -33.47867
1.22                    0.998346       -34.22066
1.224                   1.001241       -35.03679
1.228                   1.003666       -35.92228
1.232                   1.005178       -36.86079
1.236                   1.005482       -37.82718
1.24                    1.004489       -38.79158
1.244                    1.00233       -39.72416
1.248                   0.999343       -40.60001
1.252                  0.9960222        -41.4036
1.256                  0.9929386       -42.13208
1.26                   0.9906404       -42.79654
1.264                  0.9895533       -43.42084
1.268                  0.9898973       -44.03776
1.272                  0.9916399       -44.68301
1.276                  0.9944952       -45.38848
1.28                   0.9979721       -46.17625
1.284                    1.00146       -47.05459
1.288                   1.004334       -48.01669
1.292                   1.006064       -49.04194
1.296                   1.006306       -50.09942
1.3                     1.004962       -51.15273
1.304                   1.002204       -52.16567
1.308                  0.9984559       -53.10809
1.312                  0.9943296        -53.9613
1.316                  0.9905307       -54.72217
1.32                   0.9877357       -55.40491
1.324                   0.986468       -56.03974
1.328                  0.9869936       -56.66804
1.332                  0.9892611        -57.3348
1.336                  0.9929022       -58.07993
1.34                   0.9972922       -58.93076
1.344                   1.001659       -59.89705
1.348                   1.005215       -60.96966
1.352                   1.007294        -62.1223
1.356                   1.007462       -63.31584
1.36                    1.005594       -64.50429
1.364                   1.001906       -65.64162
1.368                  0.9969367       -66.68894
1.372                  0.9914709        -67.6215
1.376                  0.9864224       -68.43441
1.38                   0.9826789       -69.14537
1.384                   0.980937       -69.79378
1.388                  0.9815605       -70.43453
1.392                  0.9844938       -71.12801
1.396                  0.9892579       -71.92828
1.4                    0.9950264       -72.87257
1.404                   1.000769       -73.97474
1.408                   1.005427       -75.22342
1.412                   1.008091       -76.58449
1.416                    1.00815       -78.00653
1.42                    1.005401       -79.42828
1.424                   1.000095        -80.7869
1.428                  0.9929288       -82.02744
1.432                  0.9849637       -83.11235
1.436                  0.9774752       -84.03035
1.44                   0.9717469       -84.80271
1.444                  0.9688313       -85.48356
1.448                  0.9693284        -86.1529
1.452                  0.9732349       -86.90213
1.456                  0.9799124       -87.81568
1.46                   0.9881819       -88.95436
1.464                  0.9965249       -90.34478
1.468                   1.003334       -91.97658
1.472                   1.007171        -93.8058
1.476                   1.006986       -95.76227
1.48                    1.002289       -97.75865
1.484                   0.993253       -99.70053
1.488                   0.980743       -101.4981
1.492                  0.9662634       -103.0802
1.496                  0.9517966       -104.4111
1.5                    0.9395235       -105.5073
1.504                  0.9314329        -106.449
1.508                  0.9288805       -107.3781
1.512                  0.9322079       -108.4773
1.516                  0.9405496       -109.9353
1.52                   0.9518946       -111.9098
1.524                  0.9633717       -114.5049
1.528                  0.9716479       -117.7654
1.532                  0.9733257       -121.6873
1.536                  0.9652679       -126.2329
1.54                   0.9448287       -131.3462
1.544                   0.910002       -136.9648
1.548                  0.8595008       -143.0284
1.552                  0.7927907       -149.4845
1.556                  0.7100835       -156.2937
1.56                   0.6123059       -163.4394
1.564                  0.5010429       -170.9491
1.568                  0.3784719       -178.9644
1.572                  0.2473235        171.9539
1.576                  0.1112738        158.2437
1.58                  0.03795681        18.05127
1.584                   0.171385       -17.62431
1.588                  0.3058591       -28.24496
1.592                  0.4335897       -36.73818
1.596                  0.5514648       -44.51525
1.6                    0.6569992       -51.87639
1.604                  0.7482669       -58.89801
1.608                  0.8239632       -65.58387
1.612                  0.8834667       -71.90573
1.616                  0.9268869       -77.81767
1.62                   0.9550848        -83.2628
1.624                  0.9696647       -88.17871
1.628                  0.9729231       -92.50405
1.632                  0.9677437       -96.18814
1.636                  0.9574181       -99.20479
1.64                   0.9453759       -101.5684
1.644                  0.9348225       -103.3483
1.648                  0.9283283       -104.6737
1.652                  0.9274584       -105.7209
1.656                  0.9325666        -106.683
1.66                   0.9428408       -107.7315
1.664                  0.9565885       -108.9855
1.668                  0.9716618       -110.4986
1.672                  0.9858903       -112.2639
1.676                   0.997431       -114.2282
1.68                    1.004999         -116.31
1.684                   1.007985        -118.415
1.688                   1.006471       -120.4489
1.692                   1.001177       -122.3281
1.696                  0.9933306       -123.9899
1.7                    0.9844823       -125.4003
1.704                  0.9762671       -126.5611
1.708                  0.9701457       -127.5114
1.712                  0.9671611       -128.3226
1.716                  0.9677653       -129.0853
1.72                   0.9717602       -129.8914
1.724                   0.978371       -130.8161
1.728                  0.9864255       -131.9053
1.732                  0.9945879       -133.1704
1.736                   1.001595       -134.5916
1.74                    1.006447       -136.1246
1.744                   1.008544       -137.7101
1.748                   1.007742       -139.2833
1.752                   1.004352        -140.783
1.756                  0.9990778       -142.1598
1.76                   0.9928984       -143.3827
1.764                  0.9869102        -144.445
1.768                  0.9821485       -145.3652
1.772                  0.9794132       -146.1853
1.776                  0.9791319        -146.963
1.78                   0.9812949       -147.7606
1.784                  0.9854726       -148.6333
1.788                  0.9909107        -149.619
1.792                  0.9966809       -150.7334
1.796                   1.001845       -151.9689
1.8                     1.005611       -153.2983
1.804                   1.007445       -154.6805
1.808                   1.007142       -156.0679
1.812                   1.004846        -157.413
1.816                   1.001011       -158.6756
1.82                   0.9963281       -159.8284
1.824                  0.9916122       -160.8616
1.828                  0.9876661       -161.7848
1.832                  0.9851473       -162.6255
1.836                  0.9844548       -163.4249
1.84                   0.9856656       -164.2297
1.844                  0.9885284       -165.0836
1.848                  0.9925206       -166.0195
1.852                  0.9969495       -167.0541
1.856                   1.001077       -168.1865
1.86                    1.004245       -169.3991
1.864                   1.005975       -170.6622
1.868                   1.006034       -171.9388
1.872                   1.004467       -173.1904
1.876                   1.001579       -174.3832
1.88                   0.9978813       -175.4923
1.884                  0.9940103       -176.5065
1.888                  0.9906196       -177.4297
1.892                  0.9882722       -178.2809
1.896                  0.9873452       -179.0907
1.9                    0.9879669       -179.8959
1.904                  0.9899996        179.2671
1.908                   0.993071        178.3691
1.912                  0.9966463        177.3928
1.916                   1.000125        176.3352
1.92                     1.00294         175.207
1.924                   1.004655        174.0303
1.928                   1.005018        172.8346
1.932                   1.004006        171.6516
1.936                   1.001817        170.5112
1.94                   0.9988339        169.4362
1.944                  0.9955656        168.4391
1.948                  0.9925601          167.52
1.952                  0.9903142        166.6664
1.956                  0.9891906         165.855
1.96                   0.9893569        165.0561
1.964                  0.9907601        164.2388
1.968                   0.993141        163.3765
1.972                  0.9960831        162.4514
1.976                  0.9990883        161.4573
1.98                    1.001662        160.3998
1.984                   1.003393         159.295
1.988                   1.004017        158.1663
1.992                   1.003451        157.0407
1.996                   1.001808        155.9446
2                      0.9993711        154.8997
2.004                  0.9965479        153.9197
2.008                  0.9938057        153.0082
2.012                  0.9915928        152.1578
2.016                  0.9902651        151.3512
2.02                   0.9900276        150.5643
2.024                  0.9908992        149.7702
2.028                  0.9927153        148.9443
2.032                  0.9951573        148.0682
2.036                  0.9978107        147.1325
2.04                    1.000236        146.1385
2.044                   1.002039        145.0968
2.048                   1.002936        144.0259
2.052                    1.00279        142.9487
2.056                   1.001635        141.8889
2.06                   0.9996635        140.8679
2.064                   0.997199        139.9008
2.068                  0.9946408        138.9946
2.072                  0.9924012        138.1465
2.076                  0.9908389        137.3446
2.08                   0.9901979        136.5696
2.084                  0.9905699        135.7982
2.088                  0.9918776        135.0067
2.092                  0.9938921        134.1756
2.096                  0.9962719        133.2926
2.1                    0.9986214        132.3542
2.104                   1.000555        131.3661
2.108                   1.001758         130.342
2.112                   1.002036        129.3012
2.116                    1.00134        128.2656
2.12                   0.9997751        127.2564
2.124                  0.9975836         126.291
2.128                  0.9951065        125.3801
2.132                  0.9927317         124.526
2.136                  0.9908309        123.7221
2.14                   0.9897006        122.9537
2.144                  0.9895128        122.2001
2.148                  0.9902858        121.4386
2.152                  0.9918813        120.6476
2.156                  0.9940279        119.8108
2.16                   0.9963658        118.9194
2.164                  0.9985052        117.9736
2.168                   1.000088        116.9821
2.172                   1.000841        115.9608
2.176                   1.000623        114.9303
2.18                   0.9994398        113.9125
2.184                  0.9974497         112.928
2.188                   0.994939        111.9922
2.192                  0.9922805        111.1135
2.196                  0.9898771        110.2912
2.2                     0.988098        109.5152
2.204                  0.9872185        108.7678
2.208                  0.9873718        108.0257
2.212                  0.9885245        107.2642
2.216                  0.9904796        106.4613
2.22                   0.9929062        105.6013
2.224                  0.9953914        104.6773
2.228                  0.9975053        103.6922
2.232                  0.9988683        102.6582
2.236                  0.9992095        101.5949
2.24                   0.9984106        100.5264
2.244                  0.9965275        99.47781
2.248                  0.9937866        98.47171
2.252                   0.990557        97.52432
2.256                   0.987298        96.64273
2.26                   0.9844901        95.82296
2.264                  0.9825578        95.04988
2.268                  0.9817953        94.29894
2.272                  0.9823116        93.53991
2.276                  0.9840041        92.74177
2.28                   0.9865676        91.87803
2.284                  0.9895385        90.93125
2.288                  0.9923668        89.89587
2.292                  0.9945006        88.77912
2.296                  0.9954732        87.59986
2.3                    0.9949776        86.38588
2.304                  0.9929196        85.17006
2.308                  0.9894423        83.98563
2.312                  0.9849177        82.86121
2.316                  0.9799022        81.81579
2.32                   0.9750608        80.85453
2.324                  0.9710644        79.96622
2.328                  0.9684748        79.12311
2.332                  0.9676382        78.28419
2.336                  0.9686073         77.4013
2.34                   0.9711119        76.42715
2.344                  0.9745874        75.32353
2.348                  0.9782532        74.06773
2.352                  0.9812311        72.65593