! TOUCHSTONE file generated by CST MICROWAVE STUDIO
! Date and time: Tue Jun 14 14:10:52 2022
! Project name: AppElm_antenne_patch_FR4.cst
! Parameters = {L=45; W=58.5; e=0.035; h=1.6; lambda=0.190476; ls=120; w0=2.54; w1=0.847; ws=138; y0=18; y1=23.8}
! Header version: 2018
! Port assignment regex: !\s*Touchstone port\s*([0-9]+)\s*=\s*(CST MWS port|CST DS port)\s*([0-9]+|Zmin|Zmax)\s*\(\"(.*)\"\)(\s*mode\s*([0-9]+))?.*
! Touchstone port assignment:
! Touchstone port 1 = CST MWS port 1 ("")
# GHz S MA R 50
0                      0.9874777              -0
0.004                  0.9882181       -9.977691
0.008                  0.9903374       -19.86238
0.012                  0.9935465        -29.5659
0.016                  0.9974126       -39.00888
0.02                    1.001425        -48.1234
0.024                   1.005065       -56.85409
0.028                   1.007883       -65.15805
0.032                   1.009548       -73.00405
0.036                   1.009892       -80.37172
0.04                    1.008926       -87.25076
0.044                   1.006837        -93.6407
0.048                   1.003952       -99.55095
0.052                   1.000699        -105.001
0.056                  0.9975438       -110.0204
0.06                   0.9949214       -114.6477
0.064                  0.9931768       -118.9287
0.068                  0.9925145       -122.9136
0.072                  0.9929726       -126.6525
0.076                  0.9944218       -130.1922
0.08                   0.9965929        -133.572
0.084                  0.9991235       -136.8212
0.088                   1.001617       -139.9586
0.092                   1.003705       -142.9924
0.096                   1.005096       -145.9223
0.1                     1.005619       -148.7419
0.104                    1.00524        -151.442
0.108                   1.004062       -154.0134
0.112                   1.002306       -156.4498
0.116                   1.000271       -158.7501
0.12                   0.9982896       -160.9197
0.124                  0.9966727       -162.9707
0.128                  0.9956635       -164.9211
0.132                  0.9953988       -166.7927
0.136                  0.9958916       -168.6083
0.14                   0.9970324       -170.3886
0.144                  0.9986118       -172.1501
0.148                   1.000358       -173.9026
0.152                   1.001983        -175.649
0.156                    1.00323       -177.3856
0.16                     1.00391       -179.1035
0.164                   1.003934        179.2095
0.168                    1.00332        177.5662
0.172                   1.002186        175.9779
0.176                   1.000734        174.4522
0.18                   0.9992113        172.9916
0.184                  0.9978697        171.5926
0.188                  0.9969265        170.2465
0.192                  0.9965277        168.9402
0.196                  0.9967251        167.6585
0.2                      0.99747        166.3865
0.204                  0.9986234        165.1117
0.208                   0.999982        163.8262
0.212                   1.001314        162.5272
0.216                   1.002397        161.2177
0.22                    1.003057        159.9052
0.224                   1.003192        158.6004
0.228                   1.002791        157.3152
0.232                    1.00193        156.0607
0.236                   1.000762        154.8454
0.24                   0.9994884        153.6733
0.244                  0.9983246        152.5437
0.248                  0.9974654        151.4509
0.252                  0.9970514        150.3852
0.256                  0.9971452        149.3344
0.26                   0.9977224         148.286
0.264                  0.9986765        147.2292
0.268                  0.9998394        146.1569
0.272                    1.00101        145.0663
0.276                   1.001988        143.9594
0.28                    1.002612        142.8429
0.284                    1.00278        141.7263
0.288                   1.002468        140.6205
0.292                   1.001736         139.536
0.296                   1.000712        138.4812
0.3                    0.9995729        137.4605
0.304                  0.9985151        136.4741
0.308                  0.9977186        135.5176
0.312                  0.9973178        134.5826
0.316                  0.9973783        133.6585
0.32                   0.9978849        132.7339
0.324                   0.998746        131.7989
0.328                  0.9998103        130.8468
0.332                   1.000893        129.8747
0.336                   1.001807        128.8845
0.34                    1.002397        127.8822
0.344                   1.002565        126.8767
0.348                   1.002283        125.8784
0.352                   1.001604        124.8974
0.356                   1.000645        123.9417
0.36                   0.9995741        123.0161
0.364                  0.9985756        122.1208
0.368                  0.9978228        121.2519
0.372                  0.9974451        120.4016
0.376                  0.9975069        119.5599
0.38                   0.9979959        118.7159
0.384                  0.9988251        117.8603
0.388                  0.9998494        116.9864
0.392                    1.00089        116.0917
0.396                   1.001767         115.178
0.4                      1.00233         114.251
0.404                   1.002481        113.3197
0.408                   1.002197         112.394
0.412                   1.001526         111.484
0.416                   1.000587        110.5976
0.42                   0.9995425        109.7392
0.424                  0.9985746        108.9092
0.428                  0.9978525        108.1037
0.432                   0.997503        107.3149
0.436                  0.9975873         106.533
0.44                   0.9980904        105.7473
0.444                  0.9989244        104.9486
0.448                  0.9999429        104.1305
0.452                   1.000968        103.2906
0.456                   1.001821        102.4311
0.46                    1.002352        101.5578
0.464                   1.002469        100.6798
0.468                   1.002152        99.80713
0.472                   1.001454        98.94986
0.476                   1.000495         98.1157
0.48                   0.9994428        97.30905
0.484                   0.998481        96.52998
0.488                   0.997778        95.77421
0.492                   0.997458        95.03388
0.496                  0.9975777        94.29878
0.5                    0.9981169        93.55827
0.504                  0.9989806         92.8031
0.508                   1.000017        92.02715
0.512                   1.001045        91.22839
0.516                   1.001881        90.40923
0.52                    1.002381        89.57614
0.524                   1.002452        88.73835
0.528                   1.002083        87.90644
0.532                   1.001334        87.09041
0.536                   1.000335        86.29796
0.54                   0.9992594         85.5332
0.544                  0.9982961        84.79577
0.548                  0.9976153        84.08094
0.552                  0.9973386        83.38021
0.556                  0.9975165          82.683
0.56                   0.9981195        81.97834
0.564                  0.9990423        81.25702
0.568                   1.000123        80.51308
0.572                   1.001172        79.74498
0.576                   1.002003        78.95573
0.58                     1.00247         78.1524
0.584                   1.002487        77.34491
0.588                    1.00205         76.5442
0.592                   1.001231        75.76055
0.596                   1.000173        75.00157
0.6                      0.99906        74.27104
0.604                   0.998088          73.568
0.608                  0.9974301        72.88699
0.612                  0.9972051         72.2188
0.616                  0.9974555        71.55214
0.62                   0.9981396        70.87571
0.624                   0.999138         70.1802
0.628                   1.000275        69.45995
0.632                   1.001351        68.71399
0.636                   1.002173        67.94613
0.64                    1.002595        67.16429
0.644                    1.00254        66.37917
0.648                   1.002012        65.60234
0.652                     1.0011        64.84425
0.656                  0.9999628        64.11255
0.66                   0.9987975         63.4105
0.664                  0.9978111         62.7364
0.668                  0.9971797        62.08383
0.672                  0.9970185         61.4426
0.676                  0.9973597        60.80063
0.68                    0.998146        60.14613
0.684                  0.9992404        59.46969
0.688                    1.00045        58.76601
0.692                   1.001562        58.03484
0.696                   1.002377        57.28097
0.7                     1.002749        56.51338
0.704                   1.002608        55.74369
0.708                   1.001974         54.9842
0.712                   1.000954        54.24571
0.716                  0.9997248        53.53568
0.72                   0.9985019        52.85683
0.724                  0.9975028        52.20654
0.728                  0.9969075        51.57718
0.732                  0.9968261        50.95744
0.736                  0.9972778        50.33426
0.74                   0.9981864        49.69529
0.744                  0.9993935        49.03107
0.748                   1.000686        48.33679
0.752                   1.001835        47.61307
0.756                   1.002634        46.86591
0.76                    1.002938        46.10553
0.764                   1.002688         45.3447
0.768                   1.001921         44.5965
0.772                   1.000766        43.87212
0.776                  0.9994226        43.17883
0.78                   0.9981266        42.51862
0.784                  0.9971086        41.88773
0.788                  0.9965523        41.27717
0.792                  0.9965615        40.67422
0.796                  0.9971393        40.06475
0.8                     0.998187        39.43576
0.804                  0.9995208        38.77778
0.808                   1.000904        38.08657
0.812                   1.002091        37.36387
0.816                   1.002867        36.61702
0.82                     1.00309        35.85774
0.824                   1.002712        35.10006
0.828                   1.001792          34.358
0.832                   1.000485        33.64307
0.836                  0.9990177        32.96228
0.84                   0.9976482        32.31675
0.844                  0.9966216        31.70133
0.848                  0.9961251        31.10538
0.852                  0.9962535        30.51458
0.856                  0.9969907        29.91354
0.86                   0.9982107        29.28858
0.864                  0.9997001        28.63027
0.868                   1.001196         27.9351
0.872                   1.002431         27.2061
0.876                   1.003182        26.45227
0.88                    1.003312        25.68702
0.884                   1.002787        24.92589
0.888                   1.001691        24.18389
0.892                   1.000211        23.47293
0.896                  0.9986028        22.79966
0.9                    0.9971509        22.16415
0.904                  0.9961164        21.55961
0.908                  0.9956899        20.97352
0.912                   0.995955        20.38972
0.916                  0.9968723        19.79139
0.92                   0.9982842        19.16412
0.924                  0.9999432        18.49859
0.928                   1.001555        17.79221
0.932                   1.002831        17.04955
0.936                   1.003539        16.28154
0.94                    1.003545        15.50354
0.944                   1.002837        14.73279
0.948                   1.001527        13.98546
0.952                  0.9998374        13.27385
0.956                   0.998061        12.60418
0.96                   0.9965119        11.97519
0.964                  0.9954696         11.3782
0.968                  0.9951276        10.79842
0.972                   0.995556        10.21755
0.976                  0.9966877        9.617099
0.98                   0.9983279        8.981854
0.984                   1.000189        8.302632
0.988                    1.00194        7.577935
0.992                   1.003268        6.814157
0.996                   1.003931        6.024446
1                         1.0038        5.226451
1.004                   1.002884        4.439363
1.008                   1.001333        3.680681
1.012                  0.9994082        2.963168
1.016                  0.9974456        2.292465
1.02                   0.9957938        1.665815
1.024                   0.994753        1.072252
1.028                  0.9945195       0.4943364
1.032                  0.9951472     -0.08875874
1.036                  0.9965353       -0.697419
1.04                    0.998445       -1.347793
1.044                   1.000541       -2.048831
1.048                   1.002451       -2.800712
1.052                   1.003832       -3.594871
1.056                    1.00443       -4.415516
1.06                    1.004122       -5.242297
1.064                   1.002947       -6.053682
1.068                   1.001092       -6.830569
1.072                  0.9988708       -7.559624
1.076                  0.9966686       -8.235832
1.08                   0.9948764       -8.863718
1.084                  0.9938201        -9.45696
1.088                     0.9937       -10.03622
1.092                  0.9945513       -10.62531
1.096                  0.9962341       -11.24699
1.1                    0.9984571       -11.91848
1.104                   1.000829        -12.6486
1.108                   1.002926       -13.43593
1.112                   1.004369       -14.26935
1.116                   1.004889       -15.12995
1.12                    1.004373       -15.99411
1.124                   1.002888       -16.83753
1.128                   1.000672       -17.63907
1.132                  0.9980998       -18.38469
1.136                  0.9956165       -19.07006
1.14                   0.9936652       -19.70187
1.144                  0.9926045       -20.29711
1.148                   0.992641       -20.88034
1.152                  0.9937872       -21.47924
1.156                  0.9958556       -22.11945
1.16                   0.9984901       -22.81975
1.164                   1.001228       -23.58865
1.168                   1.003584       -24.42298
1.172                   1.005131       -25.30852
1.176                   1.005579       -26.22247
1.18                    1.004821       -27.13722
1.184                   1.002962        -28.0248
1.188                   1.000299        -28.8615
1.192                   0.997279        -29.6321
1.196                   0.994427       -30.33291
1.2                    0.9922527       -30.97314
1.204                  0.9911589       -31.57387
1.208                   0.991364       -32.16458
1.212                  0.9928554       -32.77787
1.216                  0.9953877       -33.44323
1.22                    0.998524       -34.18151
1.224                   1.001713       -35.00113
1.228                   1.004384       -35.89675
1.232                    1.00605       -36.85034
1.236                   1.006389       -37.83423
1.24                    1.005301       -38.81559
1.244                    1.00293       -39.76166
1.248                  0.9996507       -40.64503
1.252                  0.9960064       -41.44863
1.256                  0.9926258       -42.16925
1.26                   0.9901125       -42.81917
1.264                  0.9889346       -43.42474
1.268                  0.9893322       -44.02216
1.272                   0.991267        -44.6508
1.276                  0.9944202       -45.34573
1.28                   0.9982489       -46.13099
1.284                    1.00208       -47.01534
1.288                   1.005228       -47.99094
1.292                   1.007114       -49.03491
1.296                   1.007366       -50.11317
1.3                      1.00588       -51.18584
1.304                   1.002851       -52.21333
1.308                  0.9987468       -53.16278
1.312                  0.9942431       -54.01385
1.316                  0.9901138       -54.76341
1.32                   0.9871002       -55.42736
1.324                  0.9857718       -56.03923
1.328                  0.9864127       -56.64472
1.332                  0.9889563       -57.29326
1.336                  0.9929886       -58.02839
1.34                   0.9978172       -58.87941
1.344                   1.002592       -59.85623
1.348                   1.006456       -60.94797
1.352                   1.008685       -62.12526
1.356                   1.008817       -63.34504
1.36                    1.006728       -64.55702
1.364                   1.002667       -65.71115
1.368                  0.9972331       -66.76535
1.372                  0.9912903       -67.69314
1.376                  0.9858399       -68.48977
1.38                    0.981849       -69.17545
1.384                  0.9800687       -69.79403
1.388                  0.9808792       -70.40612
1.392                  0.9841997       -71.07785
1.396                  0.9894853       -71.86765
1.4                    0.9958189       -72.81494
1.404                    1.00207       -73.93317
1.408                   1.007091       -75.20832
1.412                   1.009907       -76.60201
1.416                   1.009875       -78.05768
1.42                    1.006799       -79.50857
1.424                   1.000979        -80.8868
1.428                  0.9931942       -82.13335
1.432                  0.9846145       -83.20841
1.436                  0.9766344       -84.10111
1.44                   0.9706454       -84.83623
1.444                  0.9677736        -85.4745
1.448                  0.9686389       -86.10441
1.452                  0.9731946        -86.8257
1.456                  0.9807032       -87.72901
1.46                   0.9898519       -88.87768
1.464                  0.9989783        -90.2972
1.468                    1.00635       -91.97288
1.472                   1.010436       -93.85462
1.476                   1.010147       -95.86508
1.48                    1.005001       -97.90947
1.484                  0.9952366       -99.88624
1.488                  0.9818353       -101.6993
1.492                  0.9664625       -103.2734
1.496                  0.9512881       -104.5718
1.5                    0.9386786       -105.6155
1.504                  0.9307665       -106.4954
1.508                  0.9289666       -107.3688
1.512                  0.9335691       -108.4352
1.516                  0.9435512       -109.8961
1.52                   0.9566751       -111.9154
1.524                  0.9698246       -114.5963
1.528                  0.9794462       -117.9785
1.532                  0.9819731       -122.0515
1.536                  0.9741578       -126.7722
1.54                   0.9533025       -132.0817
1.544                  0.9173996       -137.9182
1.548                  0.8652055       -144.2257
1.552                   0.796266        -150.962
1.556                  0.7109069       -158.1078
1.56                   0.6101991       -165.6851
1.564                  0.4959107       -173.8049
1.568                  0.3704792        177.1789
1.572                  0.2371725        165.9729
1.576                  0.1024296        144.0984
1.58                  0.06563557        22.42209
1.584                  0.1956215       -13.34198
1.588                  0.3303219       -26.01345
1.592                  0.4584216       -35.47684
1.596                  0.5762414       -43.82128
1.6                    0.6811463       -51.55693
1.604                  0.7711829       -58.84314
1.608                  0.8450804       -65.72205
1.612                  0.9022964       -72.18475
1.616                  0.9430547       -78.19538
1.62                   0.9683612       -83.70212
1.624                    0.97999       -88.64494
1.628                  0.9804231       -92.96375
1.632                  0.9727349       -96.60976
1.636                  0.9603933       -99.56073
1.64                   0.9469638       -101.8387
1.644                  0.9357183       -103.5252
1.648                  0.9291956       -104.7645
1.652                  0.9288255       -105.7473
1.656                  0.9347464       -106.6762
1.66                   0.9459001       -107.7243
1.664                  0.9603733        -109.005
1.668                  0.9758627       -110.5621
1.672                   0.990123       -112.3775
1.676                   1.001314       -114.3885
1.68                    1.008214        -116.506
1.684                    1.01032       -118.6308
1.688                   1.007848        -120.666
1.692                   1.001656       -122.5283
1.696                  0.9930991        -124.157
1.7                    0.9838233       -125.5234
1.704                  0.9755132       -126.6364
1.708                  0.9696211       -127.5433
1.712                   0.967121       -128.3232
1.716                  0.9683502       -129.0719
1.72                   0.9729747       -129.8826
1.724                  0.9800921       -130.8277
1.728                  0.9884355       -131.9476
1.732                  0.9966229       -133.2469
1.736                   1.003396       -134.6993
1.74                    1.007804       -136.2549
1.744                   1.009327       -137.8511
1.748                   1.007918       -139.4215
1.752                   1.003992       -140.9054
1.756                  0.9983373       -142.2561
1.76                   0.9919945       -143.4469
1.764                  0.9860822       -144.4765
1.768                  0.9816144       -145.3696
1.772                  0.9793279        -146.173
1.776                  0.9795591       -146.9474
1.78                   0.9821956       -147.7551
1.784                   0.986716       -148.6489
1.788                  0.9923034       -149.6619
1.792                  0.9980056       -150.8042
1.796                   1.002901       -152.0632
1.8                     1.006248       -153.4075
1.804                   1.007589       -154.7937
1.808                   1.006806       -156.1735
1.812                   1.004122       -157.5009
1.816                    1.00006       -158.7385
1.82                    0.995348       -159.8633
1.824                  0.9908043       -160.8705
1.828                  0.9871978       -161.7744
1.832                  0.9851192       -162.6063
1.836                  0.9848821       -163.4089
1.84                   0.9864745        -164.228
1.844                  0.9895721       -165.1044
1.848                  0.9936081       -166.0663
1.852                  0.9978827       -167.1255
1.856                   1.001688       -168.2763
1.86                    1.004423        -169.498
1.864                   1.005687       -170.7593
1.868                   1.005331       -172.0235
1.872                   1.003471       -173.2542
1.876                   1.000465       -174.4209
1.88                   0.9968468       -175.5034
1.884                   0.993238       -176.4951
1.888                  0.9902456       -177.4042
1.892                  0.9883586       -178.2525
1.896                  0.9878669        -179.071
1.9                    0.9888156        -179.895
1.904                  0.9910043        179.2428
1.908                  0.9940304        178.3182
1.912                  0.9973668        177.3189
1.916                   1.000456        176.2462
1.92                    1.002802        175.1134
1.924                   1.004049        173.9437
1.928                   1.004031        172.7652
1.932                   1.002794        171.6071
1.936                   1.000575        170.4947
1.94                   0.9977671        169.4462
1.944                  0.9948497        168.4693
1.948                  0.9923088        167.5602
1.952                  0.9905564        166.7043
1.956                  0.9898627        165.8786
1.96                   0.9903133        165.0561
1.964                  0.9917991        164.2101
1.968                  0.9940426        163.3197
1.972                  0.9966497        162.3723
1.976                  0.9991815         161.366
1.98                    1.001227        160.3085
1.984                   1.002469        159.2163
1.988                    1.00273        158.1106
1.992                   1.001996        157.0147
1.996                    1.00041          155.95
2                      0.9982514        154.9326
2.004                  0.9958813        153.9715
2.008                  0.9936877        153.0664
2.012                  0.9920198        152.2085
2.016                  0.9911323        151.3816
2.02                    0.991145        150.5653
2.024                  0.9920268        149.7381
2.028                  0.9936055        148.8817
2.032                   0.995602        147.9834
2.036                  0.9976795        147.0382
2.04                   0.9994998        146.0492
2.044                   1.000778        145.0265
2.048                   1.001323        143.9856
2.052                   1.001066        142.9442
2.056                   1.000065        141.9203
2.06                   0.9984915        140.9287
2.064                  0.9966021        139.9793
2.068                  0.9946965        139.0756
2.072                  0.9930694         138.214
2.076                  0.9919645        137.3846
2.08                   0.9915371        136.5732
2.084                  0.9918318        135.7629
2.088                   0.992778        134.9377
2.092                   0.994206        134.0845
2.096                  0.9958757        133.1954
2.1                    0.9975168        132.2684
2.104                   0.998871        131.3078
2.108                  0.9997301        130.3228
2.112                  0.9999651        129.3263
2.116                  0.9995427        128.3328
2.12                   0.9985278        127.3561
2.124                  0.9970711        126.4079
2.128                  0.9953871        125.4953
2.132                  0.9937209        124.6205
2.136                  0.9923116        123.7804
2.14                   0.9913584        122.9665
2.144                  0.9909907        122.1668
2.148                   0.991249        121.3673
2.152                  0.9920799        120.5541
2.156                  0.9933451        119.7156
2.16                   0.9948422        118.8441
2.164                  0.9963341        117.9371
2.168                  0.9975843        116.9971
2.172                  0.9983897        116.0315
2.176                  0.9986089        115.0515
2.18                   0.9981839        114.0705
2.184                  0.9971478        113.1023
2.188                   0.995623        112.1592
2.192                  0.9938059        111.2502
2.196                  0.9919408        110.3794
2.2                    0.9902875        109.5457
2.204                  0.9890818        108.7418
2.208                  0.9885003        107.9558
2.212                  0.9886302        107.1722
2.216                  0.9894525        106.3744
2.22                   0.9908396        105.5472
2.224                  0.9925708        104.6792
2.228                  0.9943617        103.7645
2.232                   0.995905        102.8041
2.236                  0.9969163        101.8054
2.24                   0.9971773        100.7818
2.244                  0.9965721        99.75077
2.248                  0.9951111        98.73141
2.252                  0.9929361        97.74179
2.256                  0.9903092        96.79611
2.26                   0.9875791        95.90207
2.264                  0.9851329        95.05892
2.268                  0.9833362        94.25687
2.272                  0.9824702        93.47762
2.276                  0.9826785        92.69689
2.28                   0.9839319        91.88805
2.284                  0.9860222        91.02651
2.288                  0.9885848          90.094
2.292                  0.9911512         89.0818
2.296                  0.9932183        87.99238
2.3                    0.9943284         86.8394
2.304                  0.9941433        85.64594
2.308                  0.9925066        84.44139
2.312                  0.9894793        83.25746
2.316                  0.9853491        82.12325
2.32                   0.9806018        81.06038
2.324                  0.9758614        80.07819
2.328                  0.9717954        79.17047
2.332                  0.9690035        78.31419
2.336                  0.9679029        77.47157
2.34                   0.9686349        76.59517
2.344                  0.9710149        75.63591
2.348                  0.9745394        74.55144
2.352                  0.9784515        73.31373