! TOUCHSTONE file generated by CST MICROWAVE STUDIO
! Date and time: Tue Jun 14 14:10:47 2022
! Project name: AppElm_antenne_patch_FR4.cst
! Parameters = {L=45; W=58.5; e=0.035; h=1.6; lambda=0.190476; ls=120; w0=2.54; w1=0.847; ws=108; y0=18; y1=23.8}
! Header version: 2018
! Port assignment regex: !\s*Touchstone port\s*([0-9]+)\s*=\s*(CST MWS port|CST DS port)\s*([0-9]+|Zmin|Zmax)\s*\(\"(.*)\"\)(\s*mode\s*([0-9]+))?.*
! Touchstone port assignment:
! Touchstone port 1 = CST MWS port 1 ("")
# GHz S MA R 50
0                      0.9875966              -0
0.004                  0.9883327        -9.97771
0.008                  0.9904395       -19.86235
0.012                  0.9936285       -29.56568
0.016                  0.9974685       -39.00828
0.02                     1.00145       -48.12216
0.024                   1.005059       -56.85188
0.028                   1.007845       -65.15452
0.032                   1.009482       -72.99889
0.036                   1.009805       -80.36466
0.04                    1.008829       -87.24161
0.044                   1.006739       -93.62942
0.048                   1.003866       -99.53772
0.052                   1.000637       -104.9862
0.056                   0.997514       -110.0046
0.06                   0.9949295       -114.6317
0.064                  0.9932231       -118.9134
0.068                  0.9925944       -122.8996
0.072                   0.993076       -126.6407
0.076                   0.994535        -130.183
0.08                   0.9967007       -133.5654
0.084                  0.9992108        -136.817
0.088                   1.001672       -139.9561
0.092                   1.003718       -142.9908
0.096                   1.005066       -145.9208
0.1                     1.005551       -148.7395
0.104                   1.005143        -151.438
0.108                   1.003952       -154.0073
0.112                   1.002199       -156.4415
0.116                   1.000184       -158.7397
0.12                   0.9982363       -160.9079
0.124                  0.9966613       -162.9584
0.128                  0.9956951       -164.9093
0.132                   0.995468       -166.7824
0.136                  0.9959862       -168.6002
0.14                   0.9971363       -170.3832
0.144                  0.9987068       -172.1473
0.148                   1.000428        -173.902
0.152                   1.002015       -175.6499
0.156                   1.003217        -177.387
0.16                    1.003855       -179.1042
0.164                   1.003845        179.2102
0.168                   1.003211        177.5691
0.172                   1.002075        175.9833
0.176                    1.00064        174.4599
0.18                     0.99915         173.001
0.184                  0.9978517        171.6028
0.188                  0.9969553        170.2565
0.192                  0.9965986        168.9489
0.196                  0.9968259         167.665
0.2                    0.9975834        166.3902
0.204                    0.99873        165.1126
0.208                   1.000063        163.8247
0.212                   1.001356        162.5241
0.216                   1.002392        161.2141
0.22                    1.003006        159.9021
0.224                   1.003104        158.5989
0.228                   1.002681         157.316
0.232                   1.001818        156.0642
0.236                   1.000667        154.8513
0.24                   0.9994274        153.6811
0.244                  0.9983088        152.5524
0.248                  0.9974983        151.4593
0.252                  0.9971276        150.3922
0.256                  0.9972515        149.3391
0.26                     0.99784        148.2878
0.264                   0.998785        147.2282
0.268                  0.9999192        146.1535
0.272                   1.001047        145.0613
0.276                   1.001976        143.9541
0.28                    1.002551        142.8384
0.284                   1.002681        141.7236
0.288                   1.002349        140.6203
0.292                   1.001617        139.5387
0.296                   1.000614        138.4865
0.3                    0.9995134        137.4677
0.304                  0.9985052        136.4822
0.308                  0.9977605        135.5252
0.312                  0.9974047        134.5886
0.316                  0.9974947        133.6619
0.32                   0.9980104        132.7343
0.324                  0.9988587        131.7963
0.328                  0.9998901        130.8417
0.332                   1.000925        129.8682
0.336                   1.001786        128.8778
0.34                    1.002327        127.8766
0.344                   1.002457        126.8732
0.348                   1.002158        125.8777
0.352                   1.001483        124.8998
0.356                   1.000551        123.9468
0.36                   0.9995234        123.0229
0.364                   0.998579        122.1282
0.368                  0.9978803        121.2586
0.372                  0.9975473        120.4063
0.376                  0.9976362        119.5617
0.38                   0.9981294        118.7145
0.384                  0.9989393        117.8557
0.388                  0.9999236        116.9794
0.392                   1.000911        116.0835
0.396                    1.00173        115.1698
0.4                     1.002241        114.2444
0.404                   1.002356        113.3155
0.408                   1.002057         112.393
0.412                   1.001396        111.4863
0.416                    1.00049        110.6026
0.42                   0.9994951        109.7459
0.424                  0.9985857        108.9163
0.428                  0.9979203        108.1097
0.432                  0.9976151        107.3186
0.436                   0.997723        106.5335
0.44                   0.9982248        105.7443
0.444                  0.9990323        104.9424
0.448                   1.000004        104.1221
0.452                    1.00097        103.2813
0.456                   1.001761        102.4222
0.46                    1.002241        101.5509
0.464                   1.002325        100.6758
0.468                   1.001999        99.80675
0.472                   1.001318        98.95292
0.476                   1.000401        98.12152
0.48                   0.9994074        97.31639
0.484                  0.9985102        96.53734
0.488                  0.9978668        95.78005
0.492                  0.9975906        95.03691
0.496                  0.9977303         94.2982
0.5                    0.9982616         93.5539
0.504                  0.9990913        92.79548
0.508                   1.000073        92.01737
0.512                   1.001035        91.21794
0.516                   1.001808        90.39972
0.52                    1.002256        89.56901
0.524                   1.002298        88.73463
0.528                   1.001927        87.90654
0.532                   1.001204        87.09405
0.536                   1.000256        86.30423
0.54                   0.9992458        85.54067
0.544                  0.9983517        84.80279
0.548                  0.9977314        84.08584
0.552                  0.9974952        83.38176
0.556                  0.9976861        82.68046
0.56                   0.9982717        81.97179
0.564                  0.9991499        81.24717
0.568                   1.000167         80.5013
0.572                   1.001142        79.73293
0.576                   1.001906        78.94517
0.58                    1.002321         78.1448
0.584                   1.002313        77.34122
0.588                   1.001881        76.54468
0.592                   1.001099         75.7647
0.596                     1.0001        75.00824
0.6                    0.9990604        74.27859
0.604                   0.998162        73.57459
0.608                  0.9975647        72.89093
0.612                   0.997376        72.21881
0.616                  0.9976315         71.5477
0.62                   0.9982881        70.86707
0.624                  0.9992311        70.16837
0.628                   1.000295        69.44653
0.632                   1.001291        68.70086
0.636                   1.002044        67.93512
0.64                    1.002417        67.15689
0.644                   1.002344         66.3762
0.648                   1.001832        65.60384
0.652                   1.000968        64.84948
0.656                  0.9999013        64.12006
0.66                    0.998818        63.41841
0.664                  0.9979095        62.74273
0.668                  0.9973382        62.08678
0.672                  0.9972077        61.44103
0.676                  0.9975446        60.79416
0.68                   0.9982915        60.13526
0.684                  0.9993183        59.45575
0.688                   1.000444        58.75086
0.692                    1.00147        58.02058
0.696                   1.002214        57.26952
0.7                     1.002541        56.50618
0.704                    1.00239        55.74144
0.708                   1.001783        54.98669
0.712                   1.000823         54.2519
0.716                  0.9996748        53.54385
0.72                   0.9985411        52.86483
0.724                  0.9976225        52.21223
0.728                  0.9970842        51.57879
0.732                  0.9970255        50.95391
0.736                  0.9974607        50.32547
0.74                    0.998316        49.68208
0.744                   0.999442        49.01508
0.748                    1.00064        48.32017
0.752                   1.001698        47.59811
0.756                   1.002426         46.8546
0.76                    1.002691        46.09924
0.764                   1.002442        45.34391
0.768                   1.001715        44.60074
0.772                   1.000634           43.88
0.776                  0.9993856        43.18827
0.78                   0.9981875        42.52723
0.784                  0.9972529        41.89322
0.788                  0.9967505        41.27777
0.792                  0.9967735        40.66903
0.796                  0.9973219        40.05393
0.8                    0.9983019        39.42048
0.804                  0.9995416        38.76005
0.808                   1.000821        38.06883
0.812                   1.001913        37.34857
0.816                    1.00262         36.6062
0.82                    1.002811        35.85263
0.824                   1.002447        35.10092
0.828                   1.001583        34.36399
0.832                   1.000365        33.65243
0.836                  0.9990037         32.9726
0.84                   0.9977385        32.32536
0.844                  0.9967952        31.70583
0.848                  0.9963453        31.10408
0.852                  0.9964742        30.50681
0.856                  0.9971646        29.89981
0.86                   0.9982986        29.27049
0.864                  0.9996773        28.61022
0.868                   1.001057        27.91586
0.872                   1.002192        27.19031
0.876                   1.002877        26.44198
0.88                    1.002984        25.68332
0.884                   1.002486        24.92872
0.888                   1.001464        24.19203
0.892                   1.000088        23.48421
0.896                  0.9985988         22.8113
0.9                    0.9972577        22.17324
0.904                  0.9963058        21.56366
0.908                  0.9959177        20.97092
0.912                  0.9961692        20.38009
0.916                  0.9970224        19.77564
0.92                   0.9983306         19.1443
0.924                  0.9998644        18.47753
0.928                   1.001352        17.77296
0.932                   1.002527         17.0349
0.936                   1.003175        16.27347
0.94                    1.003174        15.50292
0.944                   1.002513        14.73916
0.948                   1.001297        13.99715
0.952                  0.9997318         13.2882
0.956                  0.9980888        12.61798
0.96                   0.9966577        11.98528
0.964                  0.9956962        11.38201
0.968                  0.9953822        10.79451
0.972                  0.9957799        10.20585
0.976                  0.9968267        9.599022
0.98                   0.9983423        8.959968
0.984                   1.000061        8.280227
0.988                   1.001678         7.55841
0.992                   1.002903        6.800423
0.996                   1.003513        6.018417
1                       1.003389        5.228711
1.004                    1.00254        4.449051
1.008                   1.001104        3.695613
1.012                   0.999322         2.98018
1.016                  0.9975052        2.307943
1.02                   0.9959753        1.676348
1.024                  0.9950094        1.075267
1.028                  0.9947892       0.4886135
1.032                  0.9953645      -0.1028221
1.036                  0.9966433      -0.7178602
1.04                   0.9984057       -1.371443
1.044                   1.000342       -2.071898
1.048                    1.00211       -2.819466
1.052                    1.00339       -3.606304
1.056                   1.003947       -4.417861
1.06                    1.003668       -5.235335
1.064                   1.002585       -6.038803
1.068                   1.000873       -6.810574
1.072                  0.9988191       -7.538283
1.076                    0.99678       -8.217253
1.08                   0.9951166       -8.851588
1.084                   0.994131       -9.453928
1.088                  0.9940094       -10.04315
1.092                  0.9947862       -10.64137
1.096                  0.9963342       -11.26956
1.1                    0.9983858       -11.94375
1.104                    1.00058       -12.67223
1.108                   1.002526       -13.45385
1.112                   1.003872        -14.2785
1.116                   1.004365       -15.12872
1.12                    1.003901        -15.9828
1.124                   1.002537       -16.81805
1.128                   1.000492       -17.61498
1.132                    0.99811       -18.36039
1.136                  0.9958032       -19.05017
1.14                   0.9939816       -19.69035
1.144                  0.9929788       -20.29649
1.148                  0.9929887       -20.89118
1.152                  0.9940268       -21.49996
1.156                  0.9959237       -22.14663
1.16                   0.9983532       -22.84875
1.164                   1.000889       -23.61448
1.168                   1.003081       -24.44115
1.172                   1.004532       -25.31586
1.176                   1.004968       -26.21765
1.18                    1.004289       -27.12097
1.184                   1.002583       -27.99983
1.188                   1.000124       -28.83212
1.192                  0.9973226       -29.60351
1.196                  0.9946648       -30.31035
1.2                    0.9926238       -30.96089
1.204                  0.9915762       -31.57437
1.208                  0.9917292       -32.17796
1.212                  0.9930781       -32.80177
1.216                  0.9954018        -33.4733
1.22                   0.9983003       -34.21218
1.224                   1.001264       -35.02669
1.228                   1.003765       -35.91232
1.232                   1.005345       -36.85273
1.236                   1.005699       -37.82247
1.24                    1.004727       -38.79111
1.244                   1.002557       -39.72809
1.248                  0.9995273       -40.60774
1.252                  0.9961401       -41.41385
1.256                  0.9929776       -42.14304
1.26                    0.990602       -42.80622
1.264                  0.9894534       -43.42744
1.268                   0.989764       -44.04002
1.272                  0.9915076       -44.68046
1.276                  0.9943989       -45.38157
1.28                   0.9979406       -46.16623
1.284                    1.00151       -47.04325
1.288                    1.00447       -48.00606
1.292                   1.006273       -49.03394
1.296                   1.006564       -50.09552
1.3                     1.005235       -51.15371
1.304                   1.002455       -52.17148
1.308                  0.9986514       -53.11784
1.312                  0.9944459       -53.97333
1.316                  0.9905578       -54.73433
1.32                   0.9876807       -55.41496
1.324                  0.9863538       -56.04576
1.328                  0.9868553       -56.66884
1.332                  0.9891398       -57.33017
1.336                  0.9928369       -58.07073
1.34                   0.9973128       -58.91871
1.344                    1.00178       -59.88442
1.348                   1.005435       -60.95882
1.352                   1.007593       -62.11534
1.356                   1.007806       -63.31428
1.36                    1.005941       -64.50874
1.364                   1.002214       -65.65171
1.368                  0.9971669       -66.70331
1.372                  0.9915991       -67.63801
1.376                  0.9864425       -68.45033
1.38                   0.9826051       -69.15802
1.384                  0.9808022       -69.80099
1.388                  0.9814109       -70.43516
1.392                  0.9843806       -71.12219
1.396                  0.9892268       -71.91742
1.4                    0.9951094       -72.85908
1.404                   1.000978       -73.96153
1.408                   1.005753       -75.21338
1.412                   1.008503       -76.58001
1.416                   1.008602       -78.00916
1.42                     1.00584       -79.43836
1.424                   1.000467       -80.80359
1.428                  0.9931912       -82.04869
1.432                  0.9850919       -83.13508
1.436                  0.9774697       -84.05099
1.44                   0.9716353       -84.81771
1.444                  0.9686663        -85.4903
1.448                  0.9691781       -86.15033
1.452                  0.9731713       -86.89108
1.456                  0.9799963       -87.79877
1.46                   0.9884523       -88.93541
1.464                  0.9969908       -90.32814
1.468                   1.003974       -91.96627
1.472                   1.007936       -93.80498
1.476                   1.007807       -95.77284
1.48                     1.00309       -97.78092
1.484                  0.9939569       -99.73309
1.488                  0.9812913       -101.5379
1.492                  0.9666255       -103.1228
1.496                  0.9519808       -104.4509
1.5                    0.9395827       -105.5388
1.504                  0.9314622       -106.4684
1.508                  0.9290036       -107.3843
1.512                  0.9325557        -108.473
1.516                  0.9412342       -109.9264
1.52                   0.9529894       -111.9048
1.524                  0.9648991       -114.5129
1.528                  0.9735782       -117.7956
1.532                  0.9755834       -121.7478
1.536                  0.9677416       -126.3308
1.54                    0.947383       -131.4883
1.544                  0.9124885       -137.1582
1.548                  0.8617695       -143.2811
1.552                   0.794699       -149.8071
1.556                  0.7115067       -156.7019
1.56                   0.6131447       -163.9584
1.564                  0.5012339       -171.6246
1.568                  0.3780047       -179.8933
1.572                  0.2462932        170.5062
1.576                  0.1102544        154.9639
1.58                  0.04388412         21.6164
1.584                  0.1758671       -16.11581
1.588                  0.3105163       -27.46116
1.592                  0.4384921       -36.26315
1.596                  0.5565234       -44.21469
1.6                     0.662079       -51.68989
1.604                  0.7532188       -58.79249
1.608                  0.8286382       -65.53851
1.612                  0.8877286       -71.90577
1.616                  0.9306212       -77.85146
1.62                    0.958209       -83.32028
1.624                  0.9721352       -88.25052
1.628                  0.9747419       -92.58107
1.632                  0.9689626       -96.26165
1.636                  0.9581371        -99.2668
1.64                   0.9457362       -101.6126
1.644                  0.9349909       -103.3714
1.648                  0.9284735       -104.6762
1.652                  0.9277227       -105.7072
1.656                   0.933043       -106.6605
1.66                   0.9435604       -107.7085
1.664                  0.9575231       -108.9694
1.668                  0.9727374       -110.4946
1.672                   0.987007       -112.2742
1.676                  0.9984837       -114.2525
1.68                    1.005895       -116.3458
1.684                   1.008655       -118.4582
1.688                   1.006883       -120.4944
1.692                   1.001336       -122.3708
1.696                    0.99328       -124.0248
1.7                    0.9842953       -125.4237
1.704                  0.9760367       -126.5713
1.708                  0.9699678       -127.5089
1.712                   0.967117       -128.3104
1.716                  0.9679056       -129.0682
1.72                   0.9720973        -129.875
1.724                  0.9788773       -130.8054
1.728                  0.9870419       -131.9038
1.732                  0.9952363       -133.1798
1.736                   1.002193       -134.6115
1.74                    1.006924       -136.1528
1.744                    1.00885       -137.7432
1.748                   1.007855       -139.3171
1.752                   1.004283       -140.8132
1.756                  0.9988689       -142.1826
1.76                   0.9926138       -143.3956
1.764                  0.9866277        -144.447
1.768                  0.9819449       -145.3574
1.772                  0.9793495       -146.1707
1.776                  0.9792426       -146.9457
1.78                   0.9815811       -147.7454
1.784                   0.985902       -148.6242
1.788                  0.9914256        -149.619
1.792                  0.9972083       -150.7435
1.796                   1.002312       -151.9884
1.8                     1.005954       -153.3248
1.804                   1.007624       -154.7107
1.808                   1.007145       -156.0976
1.812                   1.004691       -157.4384
1.816                   1.000742       -158.6933
1.82                   0.9960103       -159.8364
1.824                  0.9913198       -160.8595
1.828                   0.987469       -161.7741
1.832                  0.9850982       -162.6094
1.836                  0.9845796       -163.4074
1.84                   0.9859573       -164.2153
1.844                  0.9889496       -165.0761
1.848                  0.9930103       -166.0214
1.852                  0.9974344       -167.0661
1.856                   1.001486       -168.2075
1.86                    1.004519       -169.4265
1.864                   1.006078       -170.6924
1.868                   1.005961       -171.9675
1.872                   1.004244       -173.2139
1.876                   1.001255       -174.3982
1.88                   0.9975267       -175.4972
1.884                  0.9936998       -176.5013
1.888                  0.9904218       -177.4164
1.892                  0.9882362       -178.2628
1.896                  0.9874909       -179.0722
1.9                     0.988281       -179.8816
1.904                  0.9904381        179.2736
1.908                   0.993567        178.3654
1.912                  0.9971223        177.3786
1.916                   1.000507        176.3119
1.92                    1.003171        175.1776
1.924                   1.004702        173.9988
1.928                   1.004882        172.8054
1.932                   1.003719        171.6289
1.936                   1.001437        170.4979
1.94                   0.9984366        169.4337
1.944                  0.9952309        168.4471
1.948                  0.9923582        167.5361
1.952                  0.9902926        166.6867
1.956                  0.9893646        165.8748
1.96                   0.9897065        165.0706
1.964                  0.9912331        164.2442
1.968                   0.993662        163.3706
1.972                  0.9965671        162.4341
1.976                  0.9994566        161.4304
1.98                    1.001855        160.3669
1.984                   1.003382        159.2607
1.988                   1.003807        158.1353
1.992                   1.003083        157.0174
1.996                    1.00135         155.932
2                      0.9989079        154.8991
2.004                  0.9961672        153.9304
2.008                  0.9935816        153.0272
2.012                   0.991573        152.1807
2.016                  0.9904614        151.3727
2.02                   0.9904116        150.5792
2.024                  0.9914087        149.7746
2.028                  0.9932633        148.9359
2.032                  0.9956485         148.047
2.036                  0.9981587        147.1011
2.04                    1.000378        146.1009
2.044                   1.001948        145.0584
2.048                   1.002623        143.9921
2.052                   1.002307        142.9243
2.056                   1.001063        141.8772
2.06                   0.9991001        140.8698
2.064                  0.9967421        139.9151
2.068                  0.9943715        139.0177
2.072                  0.9923688        138.1733
2.076                  0.9910499        137.3689
2.08                   0.9906148        136.5856
2.084                  0.9911157        135.8014
2.088                  0.9924502         134.995
2.092                  0.9943815        134.1495
2.096                  0.9965805        133.2552
2.1                    0.9986811        132.3105
2.104                   1.000339        131.3224
2.108                   1.001288        130.3047
2.112                   1.001376        129.2755
2.116                   1.000587         128.255
2.12                   0.9990454        127.2619
2.124                  0.9969901        126.3106
2.128                  0.9947406        125.4095
2.132                  0.9926446        124.5588
2.136                  0.9910246        123.7512
2.14                   0.9901246        122.9723
2.144                  0.9900718        122.2034
2.148                  0.9908561        121.4242
2.152                  0.9923325        120.6165
2.156                  0.9942468         119.767
2.16                   0.9962763        118.8693
2.164                  0.9980823        117.9247
2.168                  0.9993632        116.9421
2.172                   0.999899        115.9359
2.176                   0.999585        114.9242
2.18                   0.9984468         113.926
2.184                  0.9966364        112.9583
2.188                  0.9944109        112.0337
2.192                  0.9920938        111.1583
2.196                  0.9900265        110.3305
2.2                    0.9885151         109.541
2.204                  0.9877812        108.7742
2.208                  0.9879246        108.0103
2.212                  0.9889062        107.2286
2.216                   0.990552        106.4109
2.22                   0.9925794        105.5443
2.224                  0.9946409        104.6234
2.228                  0.9963774        103.6508
2.232                   0.997473        102.6368
2.236                  0.9977035        101.5979
2.24                   0.9969707        100.5543
2.244                  0.9953208        99.52693
2.248                  0.9929415         98.5346
2.252                  0.9901378        97.59093
2.256                  0.9872906        96.70196
2.26                   0.9847998        95.86467
2.264                  0.9830218        95.06683
2.268                  0.9822093        94.28839
2.272                  0.9824648         93.5044
2.276                  0.9837177        92.68887
2.28                   0.9857281        91.81909
2.284                  0.9881201        90.87942
2.288                  0.9904377        89.86382
2.292                  0.9922137        88.77687
2.296                  0.9930417        87.63311
2.3                    0.9926408        86.45504
2.304                   0.990903        85.26999
2.308                  0.9879183        84.10626
2.312                  0.9839727        82.98888
2.316                  0.9795157        81.93531
2.32                   0.9751006        80.95188
2.324                  0.9713017        80.03115
2.328                  0.9686187        79.15174
2.332                  0.9673843        78.28026
2.336                  0.9676935        77.37603
2.34                   0.9693677        76.39766
2.344                   0.971968        75.30981
2.348                   0.974852        74.08926
2.352                  0.9772662         72.7284