! TOUCHSTONE file generated by CST MICROWAVE STUDIO
! Date and time: Tue Jun 14 14:10:48 2022
! Project name: AppElm_antenne_patch_FR4.cst
! Parameters = {L=45; W=58.5; e=0.035; h=1.6; lambda=0.190476; ls=120; w0=2.54; w1=0.847; ws=114; y0=18; y1=23.8}
! Header version: 2018
! Port assignment regex: !\s*Touchstone port\s*([0-9]+)\s*=\s*(CST MWS port|CST DS port)\s*([0-9]+|Zmin|Zmax)\s*\(\"(.*)\"\)(\s*mode\s*([0-9]+))?.*
! Touchstone port assignment:
! Touchstone port 1 = CST MWS port 1 ("")
# GHz S MA R 50
0                      0.9875279              -0
0.004                  0.9882664       -9.977402
0.008                  0.9903803       -19.86178
0.012                  0.9935806       -29.56494
0.016                  0.9974356       -39.00751
0.02                    1.001435       -48.12153
0.024                   1.005062       -56.85161
0.028                   1.007867       -65.15485
0.032                   1.009521       -73.00003
0.036                   1.009857       -80.36682
0.04                    1.008889       -87.24494
0.044                     1.0068       -93.63398
0.048                   1.003922       -99.54347
0.052                    1.00068        -104.993
0.056                   0.997539       -110.0121
0.06                   0.9949324       -114.6395
0.064                   0.993203       -118.9209
0.068                  0.9925532       -122.9065
0.072                  0.9930187       -126.6465
0.076                  0.9944692       -130.1873
0.08                    0.996635       -133.5682
0.084                  0.9991544       -136.8184
0.088                   1.001633       -139.9565
0.092                   1.003702       -142.9905
0.096                   1.005075       -145.9202
0.1                     1.005583       -148.7394
0.104                   1.005195       -151.4387
0.108                   1.004015       -154.0092
0.112                   1.002264       -156.4447
0.116                   1.000241       -158.7443
0.12                   0.9982757       -160.9135
0.124                  0.9966776       -162.9646
0.128                  0.9956859       -164.9155
0.132                  0.9954348       -166.7879
0.136                  0.9959348       -168.6046
0.14                   0.9970749       -170.3862
0.144                  0.9986458       -172.1488
0.148                   1.000377       -173.9021
0.152                   1.001983       -175.6489
0.156                    1.00321       -177.3854
0.16                    1.003873       -179.1028
0.164                   1.003886        179.2111
0.168                   1.003268        177.5688
0.172                    1.00214        175.9816
0.176                   1.000701        174.4568
0.18                   0.9991962        172.9967
0.184                  0.9978761        171.5977
0.188                  0.9969536        170.2511
0.192                  0.9965709        168.9439
0.196                  0.9967771         167.661
0.2                    0.9975215        166.3876
0.204                  0.9986654        165.1116
0.208                   1.000007        163.8252
0.212                   1.001317        162.5258
0.216                   1.002378        161.2164
0.22                    1.003019        159.9045
0.224                   1.003142        158.6007
0.228                   1.002737        157.3168
0.232                   1.001882        156.0635
0.236                    1.00073        154.8491
0.24                   0.9994772        153.6776
0.244                  0.9983375         152.548
0.248                  0.9975007        151.4546
0.252                  0.9971035        150.3878
0.256                  0.9972052        149.3356
0.26                   0.9977798        148.2857
0.264                  0.9987212        147.2277
0.268                  0.9998633        146.1544
0.272                   1.001008        145.0634
0.276                   1.001962        143.9569
0.28                    1.002565        142.8412
0.284                   1.002719        141.7258
0.288                   1.002406        140.6215
0.292                   1.001683        139.5385
0.296                   1.000677        138.4847
0.3                    0.9995637        137.4645
0.304                  0.9985333         136.478
0.308                  0.9977616        135.5207
0.312                  0.9973782        134.5845
0.316                  0.9974456        133.6587
0.32                   0.9979471        132.7325
0.324                  0.9987922        131.7961
0.328                  0.9998318        130.8431
0.332                   1.000885        129.8708
0.336                   1.001772         128.881
0.34                     1.00234        127.8798
0.344                   1.002496        126.8758
0.348                   1.002215        125.8792
0.352                   1.001548        124.8998
0.356                   1.000613        123.9452
0.36                   0.9995717          123.02
0.364                  0.9986042        122.1244
0.368                  0.9978777        121.2544
0.372                  0.9975174        120.4026
0.376                   0.997584         119.559
0.38                   0.9980639        118.7132
0.384                  0.9988718        117.8561
0.388                  0.9998662        116.9814
0.392                   1.000874        116.0866
0.396                    1.00172        115.1736
0.4                     1.002259         114.248
0.404                     1.0024        113.3185
0.408                   1.002118        112.3947
0.412                   1.001465        111.4864
0.416                   1.000554        110.6011
0.42                   0.9995432        109.7431
0.424                  0.9986094        108.9126
0.428                  0.9979153        108.1058
0.432                  0.9975821        107.3152
0.436                  0.9976681        106.5312
0.44                   0.9981578        105.7435
0.444                  0.9989652        104.9433
0.448                  0.9999487        104.1245
0.452                   1.000936        103.2848
0.456                   1.001756        102.4263
0.46                    1.002265        101.5548
0.464                   1.002374        100.6789
0.468                   1.002065        99.80843
0.472                    1.00139        98.95295
0.476                   1.000466        98.11991
0.48                   0.9994536        97.31346
0.484                    0.99853        96.53359
0.488                  0.9978568        95.77623
0.492                  0.9975525         95.0337
0.496                   0.997671        94.29621
0.5                    0.9981918        93.55355
0.504                  0.9990236        92.79686
0.508                    1.00002        92.02028
0.512                   1.001006        91.22188
0.516                   1.001808        90.40409
0.52                    1.002285        89.57305
0.524                   1.002352        88.73766
0.528                   1.001996         87.9081
0.532                   1.001277        87.09388
0.536                   1.000318        86.30241
0.54                   0.9992875        85.53758
0.544                  0.9983652        84.79902
0.548                  0.9977139        84.08212
0.552                  0.9974498        83.37883
0.556                  0.9976207        82.67893
0.56                   0.9981981        81.97198
0.564                  0.9990811        81.24915
0.568                   1.000115        80.50479
0.572                   1.001117         79.7374
0.576                   1.001911        78.94989
0.58                    1.002356        78.14904
0.584                   1.002373        77.34429
0.588                   1.001955        76.54616
0.592                   1.001172        75.76437
0.596                   1.000161        75.00628
0.6                    0.9990979         74.2754
0.604                  0.9981692        73.57087
0.608                  0.9975402        72.88743
0.612                  0.9973241         72.2163
0.616                  0.9975615        71.54673
0.62                   0.9982127        70.86792
0.624                   0.999164        70.17104
0.628                   1.000248        69.45066
0.632                   1.001273        68.70583
0.636                   1.002059        67.94017
0.64                    1.002463        67.16126
0.644                   1.002412        66.37923
0.648                   1.001911         65.6051
0.652                   1.001044        64.84889
0.656                  0.9999615        64.11783
0.66                   0.9988517        63.41505
0.664                  0.9979108        62.73897
0.668                   0.997307        62.08345
0.672                  0.9971497        61.43887
0.676                  0.9974706        60.79371
0.68                   0.9982151        60.13676
0.684                  0.9992537        59.45907
0.688                   1.000404        58.75557
0.692                   1.001462        58.02596
0.696                   1.002239        57.27481
0.7                     1.002596        56.51056
0.704                   1.002466        55.74429
0.708                   1.001867        54.98766
0.712                     1.0009        54.25097
0.716                  0.9997327        53.54131
0.72                   0.9985693         52.8613
0.724                  0.9976162        52.20851
0.728                  0.9970452        51.57572
0.732                  0.9969611        50.95223
0.736                   0.997383        50.32568
0.74                     0.99824        49.68432
0.744                  0.9993822        49.01913
0.748                   1.000608        48.32551
0.752                     1.0017        47.60396
0.756                   1.002464        46.86011
0.76                    1.002759        46.10361
0.764                   1.002528        45.34655
0.768                   1.001807        44.60136
0.772                   1.000715        43.87864
0.776                  0.9994426        43.18536
0.78                   0.9982114        42.52348
0.784                  0.9972406        41.88949
0.788                  0.9967053        41.27492
0.792                  0.9967047         40.6678
0.796                  0.9972431        40.05474
0.8                    0.9982289        39.42339
0.804                  0.9994889        38.76474
0.808                     1.0008        38.07467
0.812                   1.001929         37.3547
0.816                   1.002672        36.61172
0.82                    1.002892        35.85677
0.824                   1.002543        35.10311
0.828                    1.00168        34.36403
0.832                   1.000447        33.65049
0.836                  0.9990574         32.9692
0.84                   0.9977558        32.32131
0.844                  0.9967745        31.70206
0.848                  0.9962917        31.10149
0.852                  0.9963992        30.50609
0.856                  0.9970838        29.90131
0.86                   0.9982283        29.27417
0.864                  0.9996326        28.61563
0.868                   1.001048        27.92225
0.872                   1.002223        27.19676
0.876                   1.002944        26.44755
0.88                    1.003079        25.68722
0.884                   1.002594        24.93046
0.888                   1.001568         24.1915
0.892                   1.000172        23.48169
0.896                  0.9986501        22.80744
0.9                    0.9972695        22.16894
0.904                  0.9962784        21.55992
0.908                  0.9958585        20.96865
0.912                  0.9960918        20.37992
0.916                  0.9969437        19.77784
0.92                   0.9982681         19.1487
0.924                  0.9998325        18.48355
0.928                    1.00136        17.77974
0.932                   1.002577        17.04143
0.936                   1.003262        16.27879
0.94                    1.003286        15.50626
0.944                   1.002633        14.74012
0.948                   1.001408        13.99571
0.952                  0.9998174        13.28479
0.956                  0.9981365        12.61338
0.96                   0.9966623        11.98049
0.964                  0.9956601        11.37811
0.968                  0.9953154        10.79239
0.972                  0.9956982        10.20611
0.976                  0.9967487        9.601808
0.98                   0.9982862        8.964975
0.984                   1.000041        8.286737
0.988                   1.001702        7.565436
0.992                   1.002971        6.806885
0.996                   1.003618        6.023329
1                       1.003516        5.231351
1.004                   1.002671        4.449091
1.008                   1.001219        3.693177
1.012                  0.9994056        2.975834
1.016                   0.997546        2.302608
1.02                   0.9959697         1.67114
1.024                  0.9949627        1.071298
1.028                  0.9947138       0.4867818
1.032                  0.9952788      -0.1020073
1.036                  0.9965676      -0.7143774
1.04                   0.9983584       -1.365763
1.044                   1.000337       -2.064895
1.048                   1.002153       -2.812255
1.052                   1.003479       -3.600042
1.056                   1.004071       -4.413547
1.06                    1.003811       -5.233635
1.064                   1.002726       -6.039938
1.068                   1.000992       -6.814272
1.072                  0.9988993       -7.543811
1.076                  0.9968115       -8.223511
1.08                   0.9950982       -8.857406
1.084                  0.9940706       -9.458081
1.088                  0.9939229       -10.04479
1.092                  0.9946941       -10.64009
1.096                  0.9962584       -11.26546
1.1                    0.9983455       -11.93747
1.104                   1.000588       -12.66483
1.108                   1.002587       -13.44656
1.112                    1.00398       -14.27255
1.116                   1.004507       -15.12514
1.12                    1.004056       -15.98211
1.124                   1.002684       -16.82042
1.128                   1.000609       -17.61994
1.132                  0.9981807       -18.36703
1.136                  0.9958194       -19.05723
1.14                    0.993945       -19.69647
1.144                  0.9929006       -20.30047
1.148                  0.9928882       -20.89217
1.152                  0.9939277       -21.49768
1.156                  0.9958499       -22.14139
1.16                   0.9983238       -22.84141
1.164                   1.000916       -23.60628
1.168                   1.003166        -24.4335
1.172                   1.004666       -25.31005
1.176                   1.005134       -26.21467
1.18                    1.004464       -27.12134
1.184                   1.002742       -28.00349
1.188                   1.000244       -28.83843
1.192                  0.9973888       -29.61134
1.196                  0.9946702       -30.31827
1.2                    0.9925731        -30.9674
1.204                  0.9914848       -31.57822
1.208                  0.9916202       -32.17836
1.212                  0.9929784       -32.79858
1.216                  0.9953368       -33.46706
1.22                   0.9982897       -34.20399
1.224                   1.001318       -35.01801
1.228                   1.003881       -35.90472
1.232                   1.005511       -36.84758
1.236                   1.005894       -37.82073
1.24                    1.004924       -38.79318
1.244                   1.002727       -39.73371
1.248                  0.9996478       -40.61602
1.252                  0.9961956       -41.42341
1.256                  0.9929642       -42.15219
1.26                   0.9905285       -42.81331
1.264                  0.9893402       -43.43116
1.268                  0.9896391       -44.03964
1.272                  0.9914023       -44.67604
1.276                   0.994341       -45.37393
1.28                     0.99795       -46.15677
1.284                   1.001595       -47.03374
1.288                   1.004624       -47.99826
1.292                   1.006479        -49.0293
1.296                   1.006795       -50.09499
1.3                      1.00546       -51.15755
1.304                   1.002643       -52.17919
1.308                  0.9987766       -53.12823
1.312                   0.994494       -53.98469
1.316                  0.9905286        -54.7447
1.32                   0.9875883       -55.42246
1.324                  0.9862248       -56.04903
1.328                  0.9867245       -56.66727
1.332                  0.9890435       -57.32409
1.336                  0.9928056       -58.06137
1.34                   0.9973663       -58.90789
1.344                   1.001923       -59.87427
1.348                   1.005657       -60.95136
1.352                   1.007869       -62.11219
1.356                   1.008101        -63.3163
1.36                    1.006218       -64.51601
1.364                   1.002435       -65.66341
1.368                  0.9973055       -66.71784
1.372                  0.9916415       -67.65316
1.376                  0.9863924       -68.46368
1.38                   0.9824839       -69.16737
1.384                  0.9806464        -69.8048
1.388                  0.9812649       -70.43295
1.392                  0.9842886       -71.11468
1.396                  0.9892246       -71.90638
1.4                    0.9952171       -72.84698
1.404                   1.001197       -73.95104
1.408                   1.006063       -75.20695
1.412                   1.008871       -76.57939
1.416                   1.008983       -78.01521
1.42                    1.006184       -79.45087
1.424                   1.000731       -80.82128
1.428                  0.9933431       -82.06927
1.432                  0.9851197       -83.15557
1.436                  0.9773846       -84.06818
1.44                   0.9714723       -84.82877
1.444                   0.968479       -85.49341
1.448                    0.96903       -86.14524
1.452                  0.9731233       -86.87922
1.456                  0.9800952       -87.78305
1.46                   0.9887213       -88.91956
1.464                  0.9974259       -90.31604
1.468                   1.004544       -91.96124
1.472                   1.008589       -93.80938
1.476                   1.008477       -95.78768
1.48                    1.003707       -97.80581
1.484                    0.99446       -99.76619
1.488                  0.9816365       -101.5759
1.492                  0.9667975       -103.1614
1.496                  0.9520005       -104.4852
1.5                    0.9395092       -105.5645
1.504                  0.9313873       -106.4826
1.508                  0.9290385       -107.3871
1.512                  0.9328093       -108.4676
1.516                  0.9417926       -109.9191
1.52                   0.9538984       -111.9033
1.524                  0.9661586       -114.5254
1.528                  0.9751431       -117.8294
1.532                  0.9773713       -121.8093
1.536                   0.969644       -126.4256
1.54                   0.9492761       -131.6213
1.544                  0.9142428       -137.3343
1.548                  0.8632599       -143.5063
1.552                  0.7958122       -150.0893
1.556                  0.7121482        -157.053
1.56                   0.6132463       -164.3981
1.564                  0.5007617       -172.1893
1.568                   0.376974        179.3389
1.572                  0.2448188        169.3161
1.576                  0.1089286        152.2283
1.58                  0.04917752        23.07741
1.584                  0.1802165       -15.09143
1.588                  0.3149347       -26.92695
1.592                  0.4430298        -35.9497
1.596                  0.5611019       -44.02808
1.6                     0.666586       -51.58641
1.604                  0.7575331        -58.7477
1.608                  0.8326435       -65.53671
1.612                  0.8913225       -71.93567
1.616                  0.9337231       -77.90401
1.62                   0.9607668       -83.38763
1.624                  0.9741304       -88.32534
1.628                   0.976194       -92.65638
1.632                  0.9699299       -96.33083
1.636                  0.9587148       -99.32409
1.64                   0.9460477       -101.6538
1.644                  0.9351744       -103.3949
1.648                  0.9286612       -104.6832
1.652                  0.9280207       -105.7022
1.656                   0.933513       -106.6498
1.66                    0.944214       -107.6988
1.664                  0.9583263       -108.9661
1.668                  0.9736243       -110.5012
1.672                  0.9878965       -112.2918
1.676                  0.9992952       -114.2802
1.68                    1.006562       -116.3811
1.684                   1.009134       -118.4977
1.688                    1.00716       -120.5341
1.692                   1.001425       -122.4066
1.696                  0.9932232       -124.0534
1.7                    0.9841558       -125.4428
1.704                  0.9758876       -126.5802
1.708                  0.9698792       -127.5088
1.712                  0.9671428        -128.304
1.716                  0.9680746       -129.0595
1.72                   0.9724068        -129.868
1.724                   0.979297       -130.8037
1.728                  0.9875203       -131.9094
1.732                  0.9957127       -133.1935
1.736                   1.002608       -134.6323
1.74                    1.007231       -136.1786
1.744                   1.009021       -137.7711
1.748                   1.007885        -139.344
1.752                   1.004192        -140.836
1.756                  0.9986953       -142.1989
1.76                   0.9924112       -143.4042
1.764                  0.9864536       -144.4478
1.768                  0.9818511       -145.3521
1.772                   0.979372       -146.1617
1.776                  0.9793951       -146.9365
1.78                   0.9818515       -147.7392
1.784                   0.986256       -148.6237
1.788                  0.9918136       -149.6256
1.792                  0.9975756       -150.7573
1.796                   1.002608       -152.0082
1.8                     1.006141       -153.3484
1.804                   1.007685       -154.7352
1.808                   1.007084       -156.1201
1.812                   1.004531       -157.4561
1.816                   1.000527       -158.7045
1.82                   0.9957916       -159.8404
1.824                  0.9911499       -160.8568
1.828                   0.987392       -161.7665
1.832                  0.9851407       -162.5996
1.836                  0.9847458       -163.3987
1.84                   0.9862281       -164.2105
1.844                  0.9892859       -165.0776
1.848                  0.9933606       -166.0301
1.852                  0.9977449       -167.0818
1.856                    1.00171       -168.2284
1.86                    1.004625       -169.4503
1.864                   1.006055       -170.7159
1.868                   1.005822        -171.988
1.872                   1.004019       -173.2288
1.876                   1.000993        -174.406
1.88                   0.9972804       -175.4976
1.884                  0.9935217       -176.4953
1.888                  0.9903525       -177.4061
1.892                  0.9882964       -178.2513
1.896                  0.9876779       -179.0628
1.9                     0.988568       -179.8772
1.904                  0.9907798        179.2709
1.908                  0.9939075         178.355
1.912                  0.9974058        177.3612
1.916                   1.000687        176.2895
1.92                    1.003221         175.153
1.924                   1.004616        173.9754
1.928                    1.00468        172.7861
1.932                   1.003439        171.6161
1.936                   1.001132         170.493
1.94                   0.9981669        169.4366
1.944                  0.9950496        168.4563
1.948                  0.9923039         167.549
1.952                  0.9903813        166.6999
1.956                  0.9895864        165.8848
1.96                   0.9900265        165.0743
1.964                  0.9915976        164.2398
1.968                  0.9940084        163.3577
1.972                  0.9968353        162.4138
1.976                  0.9995998        161.4053
1.98                    1.001848        160.3402
1.984                   1.003225         159.236
1.988                   1.003527        158.1161
1.992                   1.002729         157.006
1.996                   1.000983        155.9295
2                       0.998594        154.9051
2.004                  0.9959637        153.9429
2.008                  0.9935268        153.0431
2.012                   0.991679        152.1961
2.016                  0.9907103        151.3836
2.02                   0.9907591        150.5825
2.024                  0.9917909        149.7684
2.028                  0.9936086        148.9201
2.032                  0.9958908        148.0234
2.036                  0.9982483        147.0726
2.04                    1.000292        146.0716
2.044                   1.001693        145.0325
2.048                   1.002236        143.9732
2.052                   1.001848        142.9148
2.056                   1.000604        141.8781
2.06                   0.9987173        140.8802
2.064                  0.9964973        139.9325
2.068                  0.9943036        139.0382
2.072                  0.9924849        138.1922
2.076                  0.9913231        137.3818
2.08                   0.9909885        136.5892
2.084                  0.9915125        135.7938
2.088                  0.9927863        134.9765
2.092                  0.9945815        134.1224
2.096                   0.996591        133.2233
2.1                    0.9984806        132.2787
2.104                  0.9999433        131.2956
2.108                   1.000745        130.2869
2.112                   1.000761        129.2695
2.116                   0.999989        128.2615
2.12                   0.9985512        127.2794
2.124                    0.99667        126.3359
2.128                  0.9946344        125.4376
2.132                  0.9927543        124.5844
2.136                  0.9913115         123.769
2.14                   0.9905161        122.9786
2.144                  0.9904729        122.1963
2.148                  0.9911661        121.4044
2.152                  0.9924638        120.5872
2.156                  0.9941402        119.7331
2.16                   0.9959134        118.8368
2.164                  0.9974887        117.8996
2.168                  0.9986045        116.9291
2.172                   0.999071        115.9379
2.176                  0.9987972        114.9415
2.18                   0.9978035        113.9566
2.184                  0.9962186        112.9976
2.188                  0.9942607        112.0757
2.192                  0.9922054        111.1962
2.196                  0.9903451        110.3581
2.2                    0.9889451         109.554
2.204                   0.988201        108.7707
2.208                   0.988209        107.9916
2.212                  0.9889484         107.199
2.216                  0.9902837         106.377
2.22                   0.9919844        105.5138
2.224                  0.9937588        104.6038
2.228                  0.9952983        103.6479
2.232                  0.9963226         102.654
2.236                  0.9966214        101.6352
2.24                   0.9960875        100.6086
2.244                  0.9947346        99.59223
2.248                  0.9926989        98.60294
2.252                  0.9902239        97.65375
2.256                  0.9876281        96.75152
2.26                   0.9852602        95.89562
2.264                  0.9834456        95.07731
2.268                  0.9824335        94.28066
2.272                  0.9823539        93.48466
2.276                  0.9831889        92.66625
2.28                    0.984769        91.80413
2.284                  0.9867938        90.88212
2.288                  0.9888732        89.89191
2.292                   0.990586        88.83441
2.296                  0.9915423         87.7198
2.3                    0.9914458        86.56621
2.304                  0.9901424        85.39718
2.308                  0.9876517        84.23851
2.312                  0.9841747         83.1144
2.316                  0.9800756         82.0435
2.32                   0.9758356        81.03535
2.324                  0.9719855        80.08751
2.328                  0.9690195         79.1845
2.332                  0.9673077        78.29873
2.336                   0.967021        77.39414
2.34                    0.968084        76.43147
2.344                  0.9701683        75.37481
2.348                  0.9727299        74.19747
2.352                  0.9750838         72.8865