! TOUCHSTONE file generated by CST MICROWAVE STUDIO
! Date and time: Tue Jun 14 14:10:44 2022
! Project name: AppElm_antenne_patch_FR4.cst
! Parameters = {L=45; W=58.5; e=0.035; h=1.6; lambda=0.190476; ls=120; w0=2.54; w1=0.847; ws=90; y0=18; y1=23.8}
! Header version: 2018
! Port assignment regex: !\s*Touchstone port\s*([0-9]+)\s*=\s*(CST MWS port|CST DS port)\s*([0-9]+|Zmin|Zmax)\s*\(\"(.*)\"\)(\s*mode\s*([0-9]+))?.*
! Touchstone port assignment:
! Touchstone port 1 = CST MWS port 1 ("")
# GHz S MA R 50
0                      0.9879612              -0
0.004                  0.9886847       -9.981503
0.008                  0.9907546       -19.86963
0.012                   0.993884       -29.57583
0.016                  0.9976452       -39.02039
0.02                    1.001533       -48.13508
0.024                   1.005041       -56.86426
0.028                   1.007725       -65.16489
0.032                   1.009269       -73.00576
0.036                   1.009518       -80.36664
0.04                    1.008493       -87.23764
0.044                   1.006389       -93.61887
0.048                   1.003541       -99.52058
0.052                   1.000374       -104.9632
0.056                  0.9973467       -109.9773
0.06                   0.9948807       -114.6022
0.064                  0.9933018       -118.8842
0.068                  0.9927925       -122.8736
0.072                  0.9933685       -126.6201
0.076                  0.9948837       -130.1696
0.08                   0.9970575       -133.5598
0.084                  0.9995262        -136.819
0.088                   1.001901       -139.9643
0.092                   1.003829        -143.003
0.096                   1.005042        -145.934
0.1                     1.005394        -148.751
0.104                   1.004878        -151.445
0.108                   1.003617       -154.0077
0.112                   1.001846       -156.4342
0.116                  0.9998666        -158.725
0.12                   0.9980037        -160.887
0.124                   0.996551       -162.9337
0.128                  0.9957249       -164.8839
0.132                  0.9956334       -166.7595
0.136                  0.9962605       -168.5827
0.14                   0.9974751       -170.3732
0.144                  0.9990549       -172.1456
0.148                   1.000728       -173.9082
0.152                   1.002219       -175.6622
0.156                   1.003291       -177.4027
0.16                    1.003786       -179.1203
0.164                   1.003644        179.1972
0.168                   1.002909        177.5617
0.172                   1.001723        175.9834
0.176                   1.000294        174.4682
0.18                   0.9988678        173.0166
0.184                  0.9976802        171.6237
0.188                  0.9969234        170.2796
0.192                  0.9967116        168.9709
0.196                  0.9970652        167.6826
0.2                    0.9979085        166.4009
0.204                   0.999086         165.115
0.208                    1.00039        163.8187
0.212                   1.001598        162.5112
0.216                    1.00251        161.1967
0.22                    1.002979        159.8836
0.224                   1.002936        158.5826
0.228                   1.002401        157.3049
0.232                   1.001472        156.0605
0.236                   1.000314        154.8559
0.24                   0.9991282        153.6935
0.244                  0.9981141        152.5707
0.248                  0.9974418        151.4806
0.252                   0.997219         150.413
0.256                  0.9974753        149.3559
0.26                   0.9981582         148.298
0.264                  0.9991426          147.23
0.268                   1.000255        146.1468
0.272                   1.001302        145.0473
0.276                   1.002107        143.9353
0.28                    1.002536        142.8181
0.284                   1.002522        141.7053
0.288                   1.002072        140.6072
0.292                   1.001269         139.533
0.296                   1.000255        138.4893
0.3                    0.9992054        137.4785
0.304                  0.9983008        136.4991
0.308                  0.9976958        135.5454
0.312                  0.9974908        134.6085
0.316                   0.997717         133.678
0.32                   0.9983306        132.7436
0.324                  0.9992212        131.7972
0.328                   1.000232         130.834
0.332                   1.001187         129.853
0.336                   1.001923        128.8578
0.34                    1.002315        127.8549
0.344                   1.002299        126.8536
0.348                    1.00188        125.8633
0.352                   1.001134        124.8929
0.356                   1.000191        123.9485
0.36                   0.9992161        123.0328
0.364                  0.9983778        122.1443
0.368                  0.9978212        121.2779
0.372                  0.9976413        120.4252
0.376                  0.9978675        119.5766
0.38                   0.9984581        118.7224
0.384                  0.9993082        117.8551
0.388                   1.000269          116.97
0.392                   1.001172        116.0666
0.396                   1.001862        115.1481
0.4                      1.00222        114.2212
0.404                   1.002186        113.2946
0.408                   1.001767        112.3777
0.412                   1.001037        111.4787
0.416                   1.000123        110.6038
0.42                   0.9991844        109.7554
0.424                  0.9983858         108.932
0.428                  0.9978662        108.1284
0.432                  0.9977162        107.3367
0.436                  0.9979613        106.5473
0.44                   0.9985581        105.7509
0.444                  0.9994014        104.9403
0.448                   1.000343        104.1111
0.452                   1.001219        103.2629
0.456                   1.001876        102.3993
0.46                      1.0022        101.5269
0.464                   1.002135        100.6544
0.468                   1.001691        99.79129
0.472                   1.000945        98.94563
0.476                   1.000028        98.12323
0.48                   0.9990986        97.32638
0.484                  0.9983199        96.55337
0.488                  0.9978283        95.79882
0.492                  0.9977105        95.05458
0.496                  0.9979875        94.31112
0.5                    0.9986103        93.55926
0.504                  0.9994697        92.79179
0.508                   1.000415        92.00473
0.512                   1.001279        91.19802
0.516                   1.001911        90.37547
0.52                    1.002199        89.54409
0.524                   1.002092        88.71286
0.528                   1.001606        87.89112
0.532                   1.000825        87.08713
0.536                  0.9998849        86.30647
0.54                   0.9989489        85.55109
0.544                  0.9981815        84.81896
0.548                  0.9977186        84.10427
0.552                  0.9976425        83.39848
0.556                  0.9979679        82.69185
0.56                   0.9986385        81.97509
0.564                  0.9995368        81.24112
0.568                   1.000505        80.48625
0.572                   1.001372         79.7108
0.576                   1.001986        78.91913
0.58                    1.002237        78.11867
0.584                   1.002079        77.31883
0.588                   1.001537        76.52924
0.592                   1.000705        75.75819
0.596                  0.9997249        75.01109
0.6                    0.9987695        74.28955
0.604                   0.998007        73.59097
0.608                   0.997573          72.909
0.612                  0.9975459        72.23457
0.616                  0.9979324         71.5575
0.62                    0.998666         70.8683
0.624                  0.9996182        70.15997
0.628                   1.000621        69.42916
0.632                   1.001498        68.67671
0.636                   1.002093        67.90761
0.64                    1.002299        67.12998
0.644                   1.002077        66.35377
0.648                   1.001462        65.58898
0.652                   1.000559        64.84399
0.656                  0.9995238        64.12406
0.66                   0.9985384        63.43034
0.664                  0.9977767        62.75956
0.668                  0.9973751        62.10464
0.672                  0.9974073        61.45573
0.676                  0.9978701        60.80213
0.68                   0.9986841        60.13408
0.684                  0.9997068        59.44463
0.688                   1.000758        58.73079
0.692                   1.001652        57.99408
0.696                   1.002228        57.24026
0.7                     1.002384        56.47829
0.704                   1.002086         55.7188
0.708                   1.001383         54.9723
0.712                   1.000395        54.24729
0.716                  0.9992929        53.54882
0.72                   0.9982703        52.87749
0.724                  0.9975086        52.22923
0.728                  0.9971452        51.59602
0.732                  0.9972479        50.96715
0.736                  0.9978017         50.3312
0.74                   0.9987113         49.6781
0.744                  0.9998175        49.00096
0.748                   1.000925        48.29727
0.752                   1.001836        47.56933
0.756                   1.002388        46.82386
0.76                    1.002479        46.07083
0.764                   1.002087        45.32172
0.768                   1.001275        44.58756
0.772                   1.000181        43.87706
0.776                  0.9989942        43.19501
0.78                   0.9979228        42.54135
0.784                  0.9971573        41.91104
0.788                  0.9968361        41.29492
0.792                  0.9970195        40.68124
0.796                   0.997679        40.05777
0.8                    0.9987002        39.41405
0.804                  0.9999034        38.74327
0.808                   1.001076        38.04346
0.812                   1.002008         37.3179
0.816                    1.00253        36.57443
0.82                    1.002546        35.82415
0.824                   1.002045        35.07954
0.828                   1.001108        34.35231
0.832                   0.999893        33.65135
0.836                   0.998612        32.98111
0.84                   0.9974893        32.34075
0.844                  0.9967258        31.72406
0.848                  0.9964608        31.12056
0.852                  0.9967459        30.51724
0.856                  0.9975355        29.90095
0.86                   0.9986929        29.26076
0.864                   1.000015           28.59
0.868                   1.001267        27.88739
0.872                   1.002226        27.15729
0.876                   1.002717        26.40888
0.88                    1.002647        25.65466
0.884                   1.002019        24.90824
0.888                   1.000936        24.18208
0.892                  0.9995808         23.4853
0.896                  0.9981898        22.82198
0.9                    0.9970076        22.19031
0.904                  0.9962466        21.58275
0.908                  0.9960466        20.98724
0.912                  0.9964493        20.38933
0.916                  0.9973889        19.77478
0.92                   0.9987026        19.13215
0.924                    1.00016        18.45494
0.928                   1.001501        17.74268
0.932                   1.002486        17.00101
0.936                   1.002935        16.24072
0.94                    1.002759        15.47586
0.944                   1.001979        14.72143
0.948                   1.000721        13.99074
0.952                  0.9991993        13.29316
0.956                  0.9976778        12.63232
0.96                   0.9964254        12.00531
0.964                  0.9956677        11.40295
0.968                  0.9955458        10.81136
0.972                  0.9960891        10.21435
0.976                  0.9972079        9.596387
0.98                   0.9987088        8.945463
0.984                   1.000328        8.255251
0.988                   1.001778        7.526225
0.992                   1.002799        6.765564
0.996                   1.003202        5.985889
1                       1.002906        5.203134
1.004                   1.001949        4.433865
1.008                   1.000489        3.692471
1.012                  0.9987728        2.988624
1.016                  0.9970994        2.325439
1.02                   0.9957653        1.698682
1.024                  0.9950127        1.097288
1.028                  0.9949843       0.5051766
1.032                  0.9956945     -0.09588951
1.036                  0.9970262      -0.7229688
1.04                    0.998749       -1.388799
1.044                    1.00056       -2.099485
1.048                   1.002139       -2.853433
1.052                   1.003199       -3.641663
1.056                   1.003544       -4.449353
1.06                    1.003098       -5.258332
1.064                   1.001923         -6.0501
1.068                   1.000211       -6.808963
1.072                  0.9982508        -7.52481
1.076                  0.9963821       -8.195096
1.08                   0.9949367        -8.82555
1.084                  0.9941773       -9.429559
1.088                  0.9942494       -10.02586
1.092                  0.9951515       -10.63514
1.096                  0.9967333       -11.27644
1.1                    0.9987206       -11.96339
1.104                   1.000764       -12.70187
1.108                   1.002499       -13.48907
1.112                   1.003611       -14.31388
1.116                    1.00389       -15.15875
1.12                    1.003267        -16.0029
1.124                    1.00183       -16.82534
1.128                   0.999812       -17.60875
1.132                  0.9975523       -18.34239
1.136                  0.9954431       -19.02427
1.14                   0.9938592       -19.66199
1.144                  0.9930912       -20.27167
1.148                  0.9932897       -20.87533
1.152                  0.9944348       -21.49692
1.156                  0.9963366       -22.15788
1.16                   0.9986669       -22.87317
1.164                   1.001016       -23.64857
1.168                   1.002967       -24.47972
1.172                   1.004165       -25.35291
1.176                   1.004379       -26.24744
1.18                    1.003548       -27.13896
1.184                   1.001789       -28.00347
1.188                  0.9993838       -28.82133
1.192                  0.9967371       -29.58076
1.196                  0.9943063       -30.28034
1.2                    0.9925247       -30.92974
1.204                  0.9917211       -31.54856
1.208                   0.992057       -32.16302
1.212                  0.9934926       -32.80126
1.216                  0.9957898       -33.48806
1.22                   0.9985521       -34.24023
1.224                   1.001294       -35.06362
1.228                   1.003525       -35.95214
1.232                   1.004836       -36.88891
1.236                   1.004969       -37.84904
1.24                    1.003863        -38.8037
1.244                   1.001671       -39.72466
1.248                  0.9987379       -40.58901
1.252                  0.9955501       -41.38328
1.256                  0.9926559       -42.10638
1.26                   0.9905696       -42.77052
1.264                  0.9896778       -43.39978
1.268                  0.9901641       -44.02607
1.272                  0.9919682        -44.6834
1.276                  0.9947916       -45.40143
1.28                   0.9981477       -46.19991
1.284                   1.001447       -47.08519
1.288                   1.004096       -48.04923
1.292                   1.005607       -49.07109
1.296                    1.00567       -50.12041
1.3                     1.004222       -51.16214
1.304                   1.001453         -52.162
1.308                  0.9977895       -53.09212
1.312                  0.9938308       -53.93606
1.316                  0.9902527       -54.69253
1.32                   0.9876912       -55.37678
1.324                  0.9866248       -56.01894
1.328                  0.9872798       -56.65912
1.332                  0.9895773       -57.34009
1.336                  0.9931404       -58.09907
1.34                   0.9973557       -58.96078
1.344                    1.00148       -59.93298
1.348                   1.004768       -61.00545
1.352                   1.006599       -62.15183
1.356                   1.006581         -63.334
1.36                    1.004622       -64.50773
1.364                   1.000958       -65.62937
1.368                  0.9961223       -66.66274
1.372                  0.9908802       -67.58567
1.376                  0.9861059       -68.39523
1.38                   0.9826357       -69.11013
1.384                  0.9811125       -69.76924
1.388                  0.9818541        -70.4256
1.392                  0.9847777       -71.13659
1.396                  0.9894007        -71.9528
1.4                    0.9949185       -72.90843
1.404                   1.000342       -74.01518
1.408                   1.004668        -75.2608
1.412                   1.007043       -76.61156
1.416                   1.006906       -78.01765
1.42                     1.00409       -79.42022
1.424                  0.9988604       -80.75958
1.428                   0.991906       -81.98412
1.432                  0.9842525       -83.05951
1.436                  0.9771193       -83.97687
1.44                   0.9717189       -84.75833
1.444                  0.9690322       -85.45696
1.448                  0.9696008       -86.14965
1.452                  0.9733911        -86.9232
1.456                  0.9797696       -87.85713
1.46                   0.9875977       -89.00812
1.464                  0.9954222       -90.40038
1.468                   1.001715       -92.02289
1.472                   1.005116        -93.8329
1.476                   1.004643       -95.76275
1.48                   0.9998505       -97.72865
1.484                  0.9909261       -99.64053
1.488                  0.9787174       -101.4133
1.492                   0.964673       -102.9807
1.496                  0.9506839       -104.3107
1.5                    0.9388134       -105.4215
1.504                  0.9309255       -106.3916
1.508                   0.928271       -107.3568
1.512                  0.9311348       -108.4911
1.516                  0.9386584       -109.9732
1.52                   0.9489013       -111.9531
1.524                  0.9591068       -114.5301
1.528                  0.9660753       -117.7479
1.532                  0.9665408       -121.6028
1.536                  0.9574812       -126.0584
1.54                   0.9363418       -131.0591
1.544                  0.9011798       -136.5417
1.548                  0.8507455        -142.442
1.552                  0.7845141       -148.6999
1.556                  0.7026826       -155.2612
1.56                    0.606137       -162.0807
1.564                  0.4963957       -169.1257
1.568                  0.3755329       -176.3902
1.572                  0.2460862        176.0444
1.576                  0.1109686        167.4892
1.58                  0.02726516       -7.888212
1.584                  0.1640809        -23.1767
1.588                  0.2973641       -31.14051
1.592                  0.4238039       -38.57726
1.596                  0.5406273        -45.7693
1.6                    0.6454657       -52.74886
1.604                  0.7364501       -59.49677
1.608                  0.8122974       -65.97488
1.612                  0.8723794       -72.13424
1.616                  0.9167698       -77.91831
1.62                   0.9462668       -83.26499
1.624                   0.962384       -88.10967
1.628                  0.9673029        -92.3905
1.632                  0.9637717       -96.05698
1.636                  0.9549357       -99.08208
1.64                   0.9440842       -101.4772
1.644                  0.9343122       -103.3054
1.648                  0.9281355       -104.6859
1.652                  0.9271402       -105.7832
1.656                   0.931778         -106.78
1.66                   0.9413881       -107.8418
1.664                  0.9544472        -109.087
1.668                  0.9689577       -110.5735
1.672                   0.982856       -112.3005
1.676                  0.9943537       -114.2225
1.68                    1.002169       -116.2646
1.684                   1.005649       -118.3379
1.688                     1.0048       -120.3524
1.692                   1.000242        -122.227
1.696                  0.9930913       -123.8995
1.7                    0.9847929       -125.3342
1.704                  0.9768988       -126.5289
1.708                  0.9708252       -127.5166
1.712                  0.9676201       -128.3616
1.716                  0.9677908        -129.148
1.72                   0.9712336       -129.9634
1.724                  0.9772866       -130.8821
1.728                  0.9848841       -131.9518
1.732                  0.9927724       -133.1885
1.736                  0.9997323       -134.5779
1.74                     1.00477        -136.081
1.744                   1.007248       -137.6433
1.748                   1.006958       -139.2038
1.752                   1.004128       -140.7032
1.756                  0.9993673        -142.092
1.76                   0.9935694       -143.3377
1.764                  0.9877654       -144.4296
1.768                  0.9829598       -145.3812
1.772                  0.9799614       -146.2286
1.776                  0.9792494       -147.0242
1.78                   0.9808961       -147.8273
1.784                  0.9845687        -148.692
1.788                  0.9896056       -149.6584
1.792                  0.9951488       -150.7458
1.796                   1.000298       -151.9518
1.8                     1.004259       -153.2541
1.804                   1.006464       -154.6163
1.808                   1.006645       -155.9938
1.812                   1.004862       -157.3407
1.816                   1.001483       -158.6166
1.82                   0.9971202       -159.7923
1.824                   0.992532       -160.8541
1.828                  0.9884971       -161.8065
1.832                  0.9856875       -162.6718
1.836                  0.9845548       -163.4864
1.84                   0.9852564       -164.2942
1.844                  0.9876343       -165.1383
1.848                  0.9912541       -166.0537
1.852                  0.9954888       -167.0609
1.856                  0.9996342       -168.1639
1.86                    1.003027       -169.3503
1.864                    1.00515       -170.5947
1.868                   1.005703       -171.8631
1.872                   1.004649       -173.1186
1.876                   1.002203       -174.3267
1.88                   0.9988004       -175.4602
1.884                   0.995024       -176.5039
1.888                   0.991508       -177.4566
1.892                  0.9888352       -178.3317
1.896                   0.987439       -179.1556
1.9                    0.9875315       -179.9622
1.904                  0.9890705        179.2123
1.908                  0.9917731        178.3367
1.912                    0.99517        177.3895
1.916                  0.9986918        176.3625
1.92                    1.001766        175.2611
1.924                   1.003907        174.1029
1.928                   1.004796        172.9142
1.932                   1.004317        171.7256
1.936                   1.002576        170.5677
1.94                   0.9998792        169.4659
1.944                   0.996681        168.4375
1.948                  0.9935133        167.4877
1.952                  0.9908975        166.6097
1.956                  0.9892595        165.7848
1.96                   0.9888575        164.9861
1.964                  0.9897403        164.1827
1.968                  0.9917424        163.3456
1.972                   0.994516        162.4525
1.976                  0.9975944        161.4916
1.98                    1.000471        160.4627
1.984                   1.002684         159.377
1.988                   1.003886        158.2546
1.992                   1.003898        157.1215
1.996                   1.002732        156.0051
2                       1.000587        154.9303
2.004                  0.9978177        153.9159
2.008                  0.9948753        152.9713
2.012                  0.9922398        152.0952
2.016                  0.9903386        151.2751
2.02                   0.9894766        150.4898
2.024                  0.9897859        149.7124
2.028                  0.9912032        148.9154
2.032                  0.9934846        148.0752
2.036                  0.9962467        147.1764
2.04                   0.9990337        146.2135
2.044                   1.001393        145.1919
2.048                   1.002945        144.1267
2.052                   1.003443        143.0395
2.056                   1.002809        141.9558
2.06                    1.001145        140.9004
2.064                   0.998716        139.8944
2.068                   0.995909        138.9514
2.072                  0.9931746        138.0753
2.076                   0.990954        137.2595
2.08                   0.9896073        136.4878
2.084                   0.989352        135.7366
2.088                  0.9902272        134.9791
2.092                  0.9920857        134.1898
2.096                   0.994619        133.3489
2.1                    0.9974102        132.4456
2.104                   1.000001        131.4795
2.108                   1.001969        130.4605
2.112                   1.002988        129.4067
2.116                   1.002882        128.3422
2.12                    1.001654        127.2927
2.124                  0.9994815        126.2822
2.128                  0.9966965        125.3293
2.132                  0.9937331        124.4438
2.136                  0.9910627        123.6252
2.14                   0.9891168        122.8622
2.144                  0.9882151        122.1338
2.148                  0.9885103        121.4132
2.152                  0.9899585        120.6718
2.156                  0.9923249        119.8846
2.16                   0.9952207        119.0338
2.164                  0.9981673        118.1126
2.168                   1.000673        117.1253
2.172                   1.002312        116.0867
2.176                    1.00279          115.02
2.18                    1.001992        113.9531
2.184                   1.000005        112.9142
2.188                  0.9971061        111.9283
2.192                  0.9937272        111.0127
2.196                  0.9903918        110.1739
2.2                    0.9876338        109.4059
2.204                  0.9859079        108.6904
2.208                  0.9855105        107.9993
2.212                  0.9865229        107.2993
2.216                  0.9887911        106.5572
2.22                   0.9919462        105.7467
2.224                  0.9954633        104.8517
2.228                  0.9987458        103.8699
2.232                   1.001221        102.8127
2.236                   1.002433         101.703
2.24                    1.002114        100.5722
2.244                   1.000232        99.45551
2.248                  0.9970042        98.38689
2.252                  0.9928751        97.39384
2.256                  0.9884556         96.4925
2.26                   0.9844344        95.68405
2.264                  0.9814658        94.95309
2.268                  0.9800553        94.26897
2.272                  0.9804626         93.5901
2.276                  0.9826427         92.8711
2.28                   0.9862426        92.07097
2.284                  0.9906517        91.16041
2.288                  0.9951003         90.1269
2.292                  0.9987821         88.9765
2.296                   1.000984        87.73267
2.3                     1.001201        86.43277
2.304                  0.9992184        85.12272
2.308                  0.9951619        83.85077
2.312                  0.9894951        82.66052
2.316                  0.9829714        81.58374
2.32                   0.9765345         80.6336
2.324                  0.9711743        79.79984
2.328                   0.967758        79.04735
2.332                   0.966862        78.31971
2.336                  0.9686433        77.54804
2.34                   0.9727832        76.66332
2.344                  0.9785201        75.60922
2.348                  0.9847654        74.35195
2.352                  0.9902752         72.8852