! TOUCHSTONE file generated by CST MICROWAVE STUDIO
! Date and time: Tue Jun 14 13:15:19 2022
! Project name: AppElm_antenne_patch_FR4.cst
! Parameters = {L=45; W=58.5; e=0.035; h=1.6; lambda=0.190476; ls=120; w0=2.54; w1=0.847; ws=120; y0=22.5; y1=23.8}
! Header version: 2018
! Port assignment regex: !\s*Touchstone port\s*([0-9]+)\s*=\s*(CST MWS port|CST DS port)\s*([0-9]+|Zmin|Zmax)\s*\(\"(.*)\"\)(\s*mode\s*([0-9]+))?.*
! Touchstone port assignment:
! Touchstone port 1 = CST MWS port 1 ("")
# GHz S MA R 50
0                      0.9899254              -0
0.004                  0.9905691       -10.00924
0.008                  0.9924056        -19.9253
0.012                  0.9951667       -29.65968
0.016                  0.9984536       -39.13258
0.02                      1.0018       -48.27546
0.024                   1.004743       -57.03233
0.028                   1.006891       -65.35989
0.032                   1.007975       -73.22701
0.036                   1.007886       -80.61405
0.04                    1.006686       -87.51231
0.044                   1.004592       -93.92388
0.048                   1.001947        -99.8615
0.052                  0.9991601       -105.3485
0.056                  0.9966518        -110.418
0.06                   0.9947848       -115.1115
0.064                  0.9938102       -119.4762
0.068                  0.9938317       -123.5613
0.072                  0.9947923       -127.4141
0.076                  0.9964907       -131.0763
0.08                   0.9986197       -134.5809
0.084                    1.00082       -137.9508
0.088                    1.00274       -141.1987
0.092                    1.00409       -144.3283
0.096                   1.004687       -147.3368
0.1                     1.004473       -150.2177
0.104                   1.003525       -152.9641
0.108                   1.002035       -155.5713
0.112                   1.000272        -158.039
0.116                  0.9985442       -160.3733
0.12                   0.9971385       -162.5862
0.124                  0.9962798       -164.6955
0.128                  0.9960921       -166.7223
0.132                   0.996581       -168.6883
0.136                  0.9976375       -170.6135
0.14                   0.9990603       -172.5129
0.144                   1.000594       -174.3957
0.148                   1.001973        -176.264
0.152                    1.00297       -178.1141
0.156                   1.003428       -179.9373
0.16                    1.003288        178.2775
0.164                   1.002593        176.5417
0.168                   1.001479        174.8645
0.172                   1.000149        173.2511
0.176                  0.9988387        171.7016
0.18                   0.9977751        170.2106
0.184                  0.9971359        168.7678
0.188                   0.997021        167.3599
0.192                  0.9974366        165.9722
0.196                  0.9982961        164.5917
0.2                    0.9994377        163.2083
0.204                   1.000655        161.8171
0.208                   1.001733        160.4181
0.212                   1.002487        159.0164
0.216                   1.002793        157.6208
0.22                    1.002606        156.2419
0.224                   1.001968        154.8906
0.228                   1.000999        153.5753
0.232                  0.9998732        152.3013
0.236                  0.9987902        151.0692
0.24                   0.9979395        149.8747
0.244                  0.9974661        148.7096
0.248                  0.9974474        147.5631
0.252                   0.997879        146.4233
0.256                  0.9986769        145.2798
0.26                   0.9996944        144.1251
0.264                   1.000749        142.9557
0.268                   1.001653        141.7731
0.272                   1.002252        140.5826
0.276                   1.002442        139.3927
0.28                    1.002198        138.2134
0.284                   1.001566        137.0546
0.288                   1.000662        135.9238
0.292                  0.9996478        134.8254
0.296                  0.9987038        133.7597
0.3                    0.9979957        132.7225
0.304                  0.9976472         131.706
0.308                   0.997716        130.7005
0.312                  0.9981861        129.6954
0.316                  0.9989698        128.6818
0.32                    0.999926        127.6537
0.324                   1.000883        126.6088
0.328                   1.001673        125.5491
0.332                   1.002157        124.4805
0.336                   1.002254        123.4113
0.34                    1.001948         122.351
0.344                   1.001297        121.3087
0.348                   1.000418        120.2912
0.352                  0.9994665        119.3021
0.356                  0.9986126        118.3408
0.36                   0.9980064         117.403
0.364                  0.9977545        116.4811
0.368                  0.9978993        115.5655
0.372                  0.9984131        114.6468
0.376                  0.9992024        113.7167
0.38                    1.000125        112.7703
0.384                   1.001017        111.8062
0.388                   1.001721        110.8272
0.392                   1.002113        109.8394
0.396                   1.002125        108.8513
0.4                     1.001756        107.8719
0.404                   1.001073        106.9099
0.408                   1.000197        105.9714
0.412                  0.9992829         105.059
0.416                  0.9984935        104.1717
0.42                   0.9979683        103.3047
0.424                  0.9977996        102.4501
0.428                  0.9980168        101.5986
0.432                  0.9985798        100.7412
0.436                  0.9993873        99.87034
0.44                    1.000295        98.98188
0.444                   1.001142        98.07535
0.448                   1.001777        97.15405
0.452                    1.00209        96.22456
0.456                   1.002024        95.29544
0.46                    1.001593        94.37571
0.464                   1.000872        93.47344
0.468                   0.999988        92.59412
0.472                  0.9990991         91.7398
0.476                  0.9983623        90.90869
0.48                   0.9979088        90.09534
0.484                  0.9978191        89.29173
0.488                  0.9981091         88.4885
0.492                   0.998727        87.67688
0.496                  0.9995624        86.85009
0.5                     1.000467        86.00455
0.504                    1.00128        85.14053
0.508                   1.001857        84.26211
0.512                   1.002096        83.37627
0.516                   1.001955        82.49178
0.52                    1.001458        81.61764
0.524                   1.000692        80.76149
0.528                  0.9997936        79.92828
0.532                  0.9989206        79.11936
0.536                  0.9982286         78.3322
0.54                    0.997841        77.56077
0.544                  0.9978275        76.79663
0.548                  0.9981907        76.03042
0.552                  0.9988665        75.25354
0.556                  0.9997345         74.4597
0.56                     1.00064        73.64606
0.564                   1.001424        72.81365
0.568                   1.001944        71.96717
0.572                    1.00211        71.11419
0.576                   1.001891        70.26376
0.58                    1.001323        69.42482
0.584                   1.000507        68.60472
0.588                  0.9995855        67.80783
0.592                   0.998722        67.03479
0.596                  0.9980701        66.28232
0.6                    0.9977461        65.54373
0.604                  0.9978087        64.81014
0.608                  0.9982475        64.07205
0.612                  0.9989848        63.32103
0.616                  0.9998895        62.55128
0.62                    1.000801        61.76061
0.624                   1.001557        60.95087
0.628                   1.002023         60.1275
0.632                   1.002114        59.29861
0.636                   1.001813        58.47358
0.64                    1.001171        57.66138
0.644                     1.0003        56.86904
0.648                  0.9993526        56.10039
0.652                  0.9984969        55.35531
0.656                  0.9978852        54.62972
0.66                   0.9976273        53.91621
0.664                  0.9977705         53.2054
0.668                  0.9982906        52.48759
0.672                  0.9990957        51.75453
0.676                   1.000043        51.00088
0.68                    1.000965        50.22517
0.684                   1.001697        49.43006
0.688                   1.002107        48.62177
0.692                   1.002122        47.80905
0.696                   1.001737        47.00163
0.7                     1.001016        46.20854
0.704                   1.000086        45.43651
0.708                  0.9991102        44.68876
0.712                  0.9982611        43.96442
0.716                  0.9976908        43.25852
0.72                   0.9975021         42.5629
0.724                  0.9977309        41.86762
0.728                  0.9983377        41.16274
0.732                   0.999216        40.44019
0.736                    1.00021         39.6951
0.74                    1.001144        38.92676
0.744                    1.00185        38.13866
0.748                   1.002203        37.33791
0.752                   1.002136        36.53393
0.756                   1.001659        35.73684
0.76                    1.000853        34.95575
0.764                  0.9998573        34.19709
0.768                  0.9988479        33.46348
0.772                  0.9980032        32.75318
0.776                  0.9974746        32.06033
0.78                   0.9973584        31.37589
0.784                  0.9976774        30.68934
0.788                   0.998377        29.99049
0.792                  0.9993341        29.27137
0.796                   1.000379        28.52766
0.8                     1.001327        27.75942
0.804                   1.002007        26.97109
0.808                   1.002298        26.17066
0.812                   1.002144         25.3683
0.816                   1.001569        24.57461
0.82                    1.000669        23.79877
0.824                   0.999603        23.04691
0.828                  0.9985564          22.321
0.832                  0.9977159        21.61839
0.836                  0.9972324        20.93222
0.84                   0.9971948        20.25253
0.844                  0.9976128        19.56812
0.848                  0.9984147        18.86851
0.852                    0.99946        18.14584
0.856                   1.000564        17.39634
0.86                     1.00153        16.62091
0.864                   1.002187        15.82498
0.868                   1.002413        15.01756
0.872                   1.002166        14.20963
0.876                   1.001485         13.4123
0.88                    1.000485        12.63489
0.884                  0.9993396        11.88322
0.888                  0.9982511        11.15857
0.892                  0.9974129        10.45732
0.896                  0.9969768        9.771503
0.9                    0.9970237        9.090153
0.904                  0.9975493        8.401295
0.908                  0.9984637        7.694088
0.912                  0.9996067        6.960809
0.916                   1.000777        6.198227
0.92                    1.001765        5.408159
0.924                   1.002396        4.597134
0.928                   1.002553        3.775244
0.932                   1.002203        2.954419
0.936                   1.001402        2.146377
0.94                    1.000286        1.360601
0.944                  0.9990485       0.6026392
0.948                  0.9979071      -0.1269643
0.952                  0.9970649      -0.8328914
0.956                  0.9966749       -1.524328
0.96                   0.9968107       -2.213384
0.964                  0.9974528       -2.912921
0.968                  0.9984911       -3.634223
0.972                  0.9997437       -4.384939
0.976                    1.00099       -5.167723
0.98                    1.002007       -5.979783
0.984                   1.002613       -6.813385
0.988                   1.002694       -7.657195
0.992                   1.002231       -8.498215
0.996                   1.001296        -9.32399
1                       1.000048       -10.12477
1.004                  0.9987026       -10.89527
1.008                  0.9974966       -11.63572
1.012                  0.9966453       -12.35196
1.016                  0.9963037       -13.05457
1.02                   0.9965386       -13.75698
1.024                   0.997314       -14.47312
1.028                  0.9984973       -15.21485
1.032                  0.9998821       -15.98982
1.036                   1.001224       -16.80007
1.04                    1.002285       -17.64182
1.044                   1.002873       -18.50589
1.048                   1.002878       -19.37959
1.052                   1.002291        -20.2486
1.056                   1.001205       -21.09956
1.06                   0.9998039       -21.92227
1.064                  0.9983301       -22.71173
1.068                  0.9970428        -23.4689
1.072                  0.9961729       -24.20096
1.076                  0.9958805       -24.92004
1.08                   0.9962252        -25.6412
1.084                  0.9971538       -26.37971
1.088                  0.9985083       -27.14813
1.092                   1.000053       -27.95426
1.096                   1.001516       -28.79956
1.1                     1.002637       -29.67905
1.104                   1.003214       -30.58202
1.108                   1.003135       -31.49407
1.112                   1.002403       -32.39929
1.116                   1.001135       -33.28312
1.12                   0.9995432       -34.13473
1.124                  0.9979025       -34.94916
1.128                  0.9965009       -35.72826
1.132                  0.9955903       -36.48065
1.136                  0.9953396       -37.22038
1.14                   0.9958034       -37.96448
1.144                  0.9969091       -38.72987
1.148                  0.9984691        -39.5303
1.152                   1.000213       -40.37382
1.156                   1.001833       -41.26134
1.16                    1.003041       -42.18656
1.164                   1.003617       -43.13697
1.168                   1.003446         -44.096
1.172                   1.002543       -45.04575
1.176                    1.00105       -45.96997
1.18                   0.9992168        -46.8569
1.184                  0.9973567       -47.70143
1.188                   0.995797       -48.50629
1.192                  0.9948188       -49.28184
1.196                  0.9946063        -50.0445
1.2                    0.9952108       -50.81386
1.204                  0.9965389       -51.60916
1.208                  0.9983668       -52.44578
1.212                   1.000379       -53.33235
1.216                   1.002222       -54.26935
1.22                    1.003568       -55.24893
1.224                    1.00417       -56.25629
1.228                   1.003904       -57.27216
1.232                   1.002795       -58.27589
1.236                   1.001018       -59.24887
1.24                   0.9988648       -60.17778
1.244                   0.996704       -61.05709
1.248                  0.9949156       -61.89035
1.252                   0.993824       -62.69008
1.256                  0.9936392       -63.47575
1.26                   0.9944134       -64.27048
1.264                  0.9960295       -65.09685
1.268                  0.9982179       -65.97267
1.272                   1.000603       -66.90772
1.276                   1.002766       -67.90215
1.28                    1.004322       -68.94625
1.284                   1.004979       -70.02226
1.288                   1.004597        -71.1072
1.292                   1.003211       -72.17645
1.296                    1.00103       -73.20786
1.3                    0.9984089       -74.18556
1.304                  0.9957907       -75.10294
1.308                  0.9936342       -75.96436
1.312                  0.9923328       -76.78504
1.316                  0.9921399       -77.58877
1.32                   0.9931182       -78.40389
1.324                  0.9951231       -79.25802
1.328                  0.9978227       -80.17296
1.332                   1.000754       -81.16073
1.336                   1.003403       -82.22131
1.34                     1.00529       -83.34277
1.344                   1.006055       -84.50316
1.348                   1.005521         -85.674
1.352                   1.003727       -86.82466
1.356                   1.000929       -87.92726
1.36                   0.9975705       -88.96142
1.364                  0.9942112       -89.91819
1.368                   0.991437       -90.80254
1.372                  0.9897573       -91.63347
1.376                  0.9895073       -92.44146
1.38                   0.9907793       -93.26326
1.384                  0.9933958       -94.13521
1.388                  0.9969316        -95.0863
1.392                   1.000785       -96.13283
1.396                   1.004278       -97.27551
1.4                     1.006772       -98.49929
1.404                   1.007777       -99.77585
1.408                   1.007034       -101.0678
1.412                   1.004572       -102.3342
1.416                   1.000713       -103.5367
1.42                     0.99604       -104.6462
1.424                  0.9913137       -105.6482
1.428                  0.9873551       -106.5473
1.432                  0.9849008       -107.3682
1.436                  0.9844632       -108.1533
1.44                   0.9862175       -108.9554
1.444                  0.9899498       -109.8286
1.448                  0.9950757       -110.8173
1.452                   1.000731       -111.9481
1.456                   1.005914       -113.2252
1.46                    1.009645       -114.6295
1.464                   1.011134       -116.1218
1.468                   1.009908       -117.6481
1.472                   1.005909       -119.1465
1.476                  0.9995317       -120.5554
1.48                   0.9916103       -121.8234
1.484                   0.983327       -122.9187
1.488                  0.9760539        -123.839
1.492                  0.9711297        -124.618
1.496                  0.9696012        -125.325
1.5                    0.9719817        -126.057
1.504                  0.9780858       -126.9213
1.508                  0.9869919       -128.0158
1.512                  0.9971395       -129.4109
1.516                   1.006534       -131.1386
1.52                    1.013002       -133.1906
1.524                   1.014447       -135.5207
1.528                   1.009079       -138.0512
1.532                  0.9955948        -140.677
1.536                  0.9733294        -143.269
1.54                   0.9423707       -145.6735
1.544                  0.9036614       -147.7122
1.548                  0.8590893       -149.1822
1.552                  0.8115577        -149.865
1.556                  0.7649939       -149.5545
1.56                   0.7241833       -148.1186
1.564                  0.6942484       -145.5977
1.568                  0.6796218       -142.2983
1.572                  0.6827187       -138.7831
1.576                   0.703029        -135.696
1.58                   0.7373228       -133.5246
1.584                  0.7807962       -132.4792
1.588                  0.8283559       -132.5296
1.592                  0.8754713       -133.5093
1.596                   0.918554       -135.2035
1.6                     0.955046       -137.3974
1.604                  0.9833827       -139.8964
1.608                   1.002912        -142.531
1.612                   1.013801       -145.1566
1.616                    1.01693       -147.6523
1.62                    1.013768       -149.9222
1.624                   1.006211       -151.8987
1.628                  0.9963921       -153.5475
1.632                  0.9864385       -154.8724
1.636                  0.9782191       -155.9176
1.64                   0.9731017        -156.762
1.644                  0.9717803       -157.5068
1.648                  0.9742208       -158.2567
1.652                  0.9797398          -159.1
1.656                  0.9871971        -160.095
1.66                   0.9952445       -161.2637
1.664                   1.002574       -162.5946
1.668                   1.008118       -164.0499
1.672                   1.011188       -165.5753
1.676                   1.011533       -167.1099
1.68                    1.009343       -168.5949
1.684                   1.005186       -169.9816
1.688                  0.9999051       -171.2376
1.692                  0.9944725       -172.3516
1.696                  0.9898336       -173.3347
1.7                    0.9867491       -174.2189
1.704                   0.985674       -175.0511
1.708                  0.9866915       -175.8839
1.712                  0.9895184       -176.7659
1.716                  0.9935779       -177.7326
1.72                   0.9981201       -178.8016
1.724                   1.002362        -179.971
1.728                   1.005619        178.7783
1.732                   1.007413        177.4778
1.736                   1.007529        176.1658
1.74                    1.006037        174.8809
1.744                    1.00327        173.6563
1.748                  0.9997564        172.5149
1.752                  0.9961284        171.4657
1.756                  0.9930163        170.5026
1.76                   0.9909384        169.6052
1.764                  0.9902163        168.7429
1.768                  0.9909226        167.8805
1.772                  0.9928792        166.9848
1.776                  0.9956979        166.0309
1.78                   0.9988607        165.0057
1.784                   1.001814        163.9099
1.788                   1.004067        162.7562
1.792                   1.005267        161.5672
1.796                   1.005254        160.3707
1.8                     1.004077        159.1951
1.804                   1.001978        158.0649
1.808                  0.9993504        156.9971
1.812                  0.9966639         155.998
1.816                  0.9943862        155.0627
1.82                   0.9929011        154.1757
1.824                  0.9924432        153.3136
1.828                  0.9930594        152.4502
1.832                  0.9946066        151.5607
1.836                  0.9967832        150.6264
1.84                   0.9991892        149.6377
1.844                   1.001399        148.5957
1.848                   1.003037        147.5108
1.852                   1.003838         146.401
1.856                   1.003689        145.2882
1.86                    1.002643        144.1947
1.864                   1.000906        143.1395
1.868                  0.9987963        142.1351
1.872                  0.9966908        141.1855
1.876                   0.994957        140.2858
1.88                   0.9938884        139.4224
1.884                  0.9936538        138.5765
1.888                    0.99427        137.7267
1.892                  0.9956021        136.8536
1.896                  0.9973921        135.9433
1.9                    0.9993087        134.9891
1.904                   1.001009         133.993
1.908                   1.002197        132.9647
1.912                   1.002675        131.9197
1.916                   1.002375        130.8763
1.92                    1.001365        129.8526
1.924                  0.9998358        128.8634
1.928                  0.9980665        127.9178
1.932                   0.996372        127.0175
1.936                  0.9950491        126.1566
1.94                   0.9943213        125.3226
1.944                  0.9943021         124.499
1.948                  0.9949741        123.6681
1.952                  0.9961961        122.8145
1.956                  0.9977309        121.9277
1.96                   0.9992918        121.0041
1.964                   1.000594         120.047
1.968                   1.001405        119.0663
1.972                   1.001586         118.076
1.976                   1.001112         117.092
1.98                    1.000075        116.1294
1.984                  0.9986678        115.1994
1.988                  0.9971438         114.308
1.992                  0.9957753        113.4543
1.996                  0.9948023        112.6313
2                      0.9943887        111.8265
2.004                  0.9945935         111.025
2.008                  0.9953616        110.2117
2.012                  0.9965345        109.3745
2.016                  0.9978833        108.5063
2.02                   0.9991504        107.6063
2.024                   1.000098        106.6798
2.028                    1.00055        105.7373
2.032                   1.000424        104.7922
2.036                   0.999743        103.8587
2.04                   0.9986301         102.949
2.044                  0.9972876        102.0713
2.048                  0.9959574        101.2282
2.052                  0.9948772        100.4163
2.056                  0.9942364        99.62657
2.06                   0.9941403        98.84626
2.064                  0.9945916         98.0613
2.068                  0.9954892         97.2589
2.072                  0.9966497        96.43003
2.076                  0.9978415        95.57105
2.08                   0.9988292         94.6843
2.084                   0.999417        93.77747
2.088                  0.9994848        92.86222
2.092                  0.9990095        91.95196
2.096                  0.9980691        91.05939
2.1                    0.9968285        90.19419
2.104                  0.9955094        89.36115
2.108                  0.9943485         88.5593
2.112                  0.9935531        87.78185
2.116                  0.9932613        87.01749
2.12                   0.9935149        86.25254
2.124                  0.9942505        85.47352
2.128                  0.9953118        84.66979
2.132                   0.996479        83.83564
2.136                  0.9975099        82.97126
2.14                   0.9981871        82.08274
2.144                  0.9983576        81.18089
2.148                  0.9979628        80.27921
2.152                  0.9970505        79.39142
2.156                  0.9957671        78.52896
2.16                   0.9943321        77.69868
2.164                   0.992998         76.9015
2.168                  0.9920024        76.13195
2.172                  0.9915217        75.37899
2.176                  0.9916349        74.62813
2.18                   0.9923068        73.86403
2.184                  0.9933917        73.07366
2.188                  0.9946595        72.24874
2.192                   0.995839        71.38745
2.196                  0.9966687         70.4948
2.2                    0.9969461        69.58177
2.204                  0.9965686         68.6633
2.208                  0.9955538        67.75571
2.212                  0.9940413        66.87357
2.216                  0.9922702        66.02698
2.22                   0.9905374        65.21937
2.224                   0.989143        64.44645
2.228                  0.9883324        63.69662
2.232                  0.9882458        62.95287
2.236                  0.9888862        62.19585
2.24                   0.9901136        61.40771
2.244                  0.9916668        60.57549
2.248                    0.99321        59.69386
2.252                  0.9943939        58.76614
2.256                   0.994921        57.80398
2.26                   0.9946036        56.82528
2.264                  0.9934024        55.85126
2.268                  0.9914412        54.90262
2.272                  0.9889923        53.99576
2.276                  0.9864334        53.13926
2.28                   0.9841832        52.33169
2.284                   0.982622        51.56098
2.288                  0.9820158        50.80594
2.292                  0.9824569        50.03979
2.296                  0.9838354        49.23512
2.3                    0.9858499        48.36925
2.304                  0.9880554        47.42868
2.308                  0.9899403        46.41191
2.312                   0.991019        45.32987
2.316                  0.9909208        44.20438
2.32                    0.989463        43.06457
2.324                  0.9866943        41.94223
2.328                   0.982902        40.86627
2.332                  0.9785768        39.85715
2.336                  0.9743387        38.92197
2.34                   0.9708297         38.0514
2.344                  0.9685912        37.21938
2.348                  0.9679473        36.38628
2.352                  0.9689214        35.50554