! TOUCHSTONE file generated by CST MICROWAVE STUDIO
! Date and time: Tue Jun 14 13:15:12 2022
! Project name: AppElm_antenne_patch_FR4.cst
! Parameters = {L=45; W=58.5; e=0.035; h=1.6; lambda=0.190476; ls=120; w0=2.54; w1=0.847; ws=120; y0=16.2; y1=23.8}
! Header version: 2018
! Port assignment regex: !\s*Touchstone port\s*([0-9]+)\s*=\s*(CST MWS port|CST DS port)\s*([0-9]+|Zmin|Zmax)\s*\(\"(.*)\"\)(\s*mode\s*([0-9]+))?.*
! Touchstone port assignment:
! Touchstone port 1 = CST MWS port 1 ("")
# GHz S MA R 50
0                      0.9861221              -0
0.004                  0.9869131       -9.958383
0.008                  0.9891812       -19.82422
0.012                  0.9926273       -29.50983
0.016                  0.9968029       -38.93639
0.02                    1.001175       -48.03651
0.024                   1.005201       -56.75533
0.028                   1.008396       -65.05024
0.032                   1.010399       -72.89012
0.036                   1.011008       -80.25421
0.04                    1.010206       -87.13138
0.044                   1.008154       -93.51972
0.048                    1.00517       -99.42675
0.052                   1.001685       -104.8697
0.056                  0.9981842       -109.8757
0.06                   0.9951392       -114.4814
0.064                  0.9929451       -118.7313
0.068                  0.9918639       -122.6754
0.072                  0.9919902       -126.3653
0.076                  0.9932419         -129.85
0.08                    0.995379       -133.1721
0.084                   0.998046        -136.365
0.088                   1.000829       -139.4507
0.092                   1.003318       -142.4406
0.096                   1.005167       -145.3361
0.1                     1.006138       -148.1314
0.104                   1.006134       -150.8165
0.108                     1.0052       -153.3799
0.112                   1.003519       -155.8123
0.116                   1.001377       -158.1086
0.12                   0.9991187       -160.2702
0.124                  0.9970965       -162.3057
0.128                  0.9956151       -164.2307
0.132                  0.9948855        -166.066
0.136                  0.9949947       -167.8355
0.14                   0.9958953       -169.5626
0.144                  0.9974164       -171.2675
0.148                  0.9992962       -172.9646
0.152                   1.001225       -174.6609
0.156                   1.002897       -176.3562
0.16                    1.004057       -178.0435
0.164                   1.004538       -179.7109
0.168                   1.004285        178.6557
0.172                   1.003357        177.0705
0.176                   1.001922        175.5449
0.18                    1.000221        174.0859
0.184                  0.9985357        172.6946
0.188                  0.9971375        171.3653
0.192                  0.9962475        170.0871
0.196                  0.9959991        168.8446
0.2                     0.996418        167.6209
0.204                    0.99742           166.4
0.208                  0.9988269        165.1692
0.212                   1.000398        163.9215
0.216                   1.001873        162.6555
0.22                     1.00301         161.376
0.224                   1.003629        160.0926
0.228                   1.003639        158.8182
0.232                   1.003048        157.5662
0.236                   1.001962        156.3489
0.24                    1.000567         155.175
0.244                   0.999099        154.0485
0.248                  0.9978023        152.9675
0.252                  0.9968908        151.9248
0.256                  0.9965115        150.9086
0.26                   0.9967209        149.9049
0.264                  0.9974754        148.8996
0.268                  0.9986406         147.881
0.272                   1.000015        146.8413
0.276                   1.001364        145.7785
0.28                    1.002464        144.6956
0.284                   1.003131        143.6009
0.288                    1.00326        142.5056
0.292                   1.002833        141.4226
0.296                   1.001929        140.3639
0.3                     1.000701        139.3388
0.304                  0.9993621        138.3522
0.308                  0.9981373        137.4039
0.312                  0.9972349        136.4884
0.316                  0.9968059        135.5956
0.32                   0.9969201        134.7131
0.324                   0.997554        133.8278
0.328                  0.9985954        132.9281
0.332                  0.9998633        132.0063
0.336                    1.00114        131.0598
0.34                    1.002208        130.0909
0.344                   1.002887        129.1068
0.348                   1.003065        128.1181
0.352                   1.002714        127.1372
0.356                   1.001897        126.1757
0.36                    1.000754        125.2432
0.364                  0.9994834         124.345
0.368                   0.998302        123.4815
0.372                  0.9974137         122.648
0.376                  0.9969707        121.8354
0.38                   0.9970482        121.0317
0.384                  0.9976307        120.2243
0.388                  0.9986161         119.402
0.392                  0.9998323         118.557
0.396                   1.001069        117.6864
0.4                     1.002113        116.7923
0.404                   1.002786        115.8815
0.408                   1.002973        114.9644
0.412                   1.002643        114.0529
0.416                   1.001854        113.1589
0.42                    1.000742        112.2917
0.424                  0.9994992        111.4568
0.428                  0.9983406        110.6548
0.432                  0.9974674        109.8812
0.436                  0.9970314        109.1272
0.44                   0.9971086        108.3809
0.444                  0.9976846        107.6299
0.448                  0.9986584         106.863
0.452                  0.9998597        106.0728
0.456                   1.001079        105.2561
0.46                    1.002104        104.4151
0.464                   1.002758        103.5569
0.468                   1.002927        102.6916
0.472                   1.002581        101.8314
0.476                    1.00178         100.988
0.48                    1.000662        100.1709
0.484                  0.9994196        99.38526
0.488                  0.9982705        98.63171
0.492                   0.997415        97.90554
0.496                  0.9970033        97.19769
0.5                    0.9971081        96.49628
0.504                  0.9977112        95.78874
0.508                  0.9987067        95.06407
0.512                  0.9999202        94.31476
0.516                   1.001139        93.53808
0.52                    1.002149        92.73657
0.524                   1.002774        91.91747
0.528                   1.002904        91.09146
0.532                   1.002514        90.27082
0.536                   1.001672        89.46735
0.54                    1.000522        88.69038
0.544                  0.9992633        87.94509
0.548                   0.998117        87.23151
0.552                  0.9972848        86.54453
0.556                  0.9969139         85.8746
0.56                   0.9970711        85.20949
0.564                  0.9977298         84.5364
0.568                  0.9987743        83.84435
0.572                   1.000021        83.12609
0.576                   1.001251        82.37933
0.58                    1.002247        81.60722
0.584                   1.002833        80.81754
0.588                   1.002906        80.02155
0.592                   1.002451         79.2319
0.596                   1.001544        78.46052
0.6                     1.000341        77.71666
0.604                  0.9990539        77.00504
0.608                  0.9979076        76.32517
0.612                  0.9971059        75.67116
0.616                  0.9967917        75.03278
0.62                   0.9970233        74.39719
0.624                  0.9977613        73.75133
0.628                  0.9988762        73.08421
0.632                   1.000172        72.38895
0.636                   1.001419        71.66391
0.64                    1.002398        70.91299
0.644                   1.002934        70.14486
0.648                   1.002931        69.37145
0.652                   1.002387        68.60595
0.656                   1.001393        67.86045
0.66                    1.000121        67.14397
0.664                  0.9987941        66.46075
0.668                  0.9976468        65.80946
0.672                  0.9968832        65.18328
0.676                  0.9966414        64.57102
0.68                   0.9969669        63.95915
0.684                  0.9978042        63.33422
0.688                  0.9990065        62.68531
0.692                   1.000361        62.00602
0.696                   1.001629        61.29552
0.7                     1.002583        60.55871
0.704                   1.003054        59.80532
0.708                   1.002955        59.04817
0.712                   1.002299        58.30097
0.716                   1.001198        57.57607
0.72                    0.999841        56.88219
0.724                  0.9984672        56.22287
0.728                  0.9973198        55.59578
0.732                  0.9966043        54.99286
0.736                   0.996451        54.40188
0.74                   0.9968903        53.80843
0.744                  0.9978469        53.19863
0.748                  0.9991521        52.56171
0.752                   1.000575        51.89185
0.756                   1.001862        51.18928
0.76                    1.002784        50.46011
0.764                   1.003174        49.71527
0.768                   1.002958        48.96862
0.772                    1.00217        48.23455
0.776                   1.000942        47.52554
0.78                   0.9994871        46.84997
0.784                  0.9980617         46.2105
0.788                  0.9969192        45.60352
0.792                   0.996265        45.01967
0.796                  0.9962197        44.44531
0.8                     0.996795        43.86512
0.804                  0.9978914        43.26482
0.808                  0.9993157        42.63378
0.812                   1.000815          41.967
0.816                   1.002121         41.2659
0.82                       1.003        40.53805
0.824                   1.003293        39.79579
0.828                   1.002939        39.05414
0.832                   1.001997        38.32823
0.836                   1.000624        37.63065
0.84                   0.9990607        36.96929
0.844                  0.9975817        36.34578
0.848                  0.9964515        35.75504
0.852                  0.9958747        35.18603
0.856                  0.9959592        34.62369
0.86                   0.9966944        34.05157
0.864                  0.9979529        33.45499
0.868                  0.9995123        32.82362
0.872                   1.001095         32.1534
0.876                   1.002419        31.44722
0.88                    1.003244        30.71429
0.884                   1.003419         29.9686
0.888                   1.002905        29.22646
0.892                   1.001784        28.50376
0.896                   1.000248        27.81321
0.9                    0.9985636        27.16207
0.904                  0.9970289        26.55071
0.908                  0.9959193        25.97232
0.912                  0.9954376        25.41398
0.916                  0.9956758        24.85891
0.92                    0.996597        24.28953
0.924                  0.9980408         23.6907
0.928                  0.9997521        23.05252
0.932                   1.001426        22.37209
0.936                   1.002762        21.65397
0.94                    1.003519        20.90932
0.944                   1.003554        20.15396
0.948                   1.002851        19.40565
0.952                   1.001525        18.68113
0.956                  0.9998021        17.99317
0.96                   0.9979824        17.34827
0.964                  0.9963887        16.74528
0.968                  0.9953086        16.17539
0.972                   0.994941         15.6235
0.976                  0.9953593        15.07091
0.98                   0.9964953        14.49873
0.984                   0.998151        13.89139
0.988                   1.000033        13.23955
0.992                   1.001806        12.54167
0.996                    1.00315        11.80428
1                        1.00382        11.04076
1.004                   1.003688        10.26903
1.008                   1.002764        9.508512
1.012                   1.001199        8.776868
1.016                  0.9992601         8.08691
1.02                   0.9972859        7.444212
1.024                  0.9956272        6.845852
1.028                  0.9945847         6.28066
1.032                  0.9943529        5.731011
1.036                  0.9949821        5.175977
1.04                   0.9963677        4.595194
1.044                  0.9982677        3.972663
1.048                   1.000345        3.299687
1.052                   1.002227        2.576376
1.056                   1.003576        1.811554
1.06                    1.004141        1.021166
1.064                   1.003809       0.2255628
1.068                   1.002622      -0.5539102
1.072                   1.000775        -1.29851
1.076                  0.9985827       -1.995394
1.08                   0.9964273       -2.640077
1.084                  0.9946932       -3.237571
1.088                  0.9936966       -3.801833
1.092                   0.993626       -4.353476
1.096                  0.9945048        -4.91605
1.1                    0.9961853       -5.511653
1.104                  0.9983731       -6.156805
1.108                   1.000679       -6.859385
1.112                   1.002691       -7.617344
1.116                   1.004042       -8.419237
1.12                     1.00448       -9.245963
1.124                   1.003908       -10.07441
1.128                   1.002407       -10.88087
1.132                   1.000221       -11.64528
1.136                  0.9977217       -12.35472
1.14                   0.9953463       -13.00596
1.144                  0.9935188        -13.6065
1.148                  0.9925748       -14.17364
1.152                  0.9926965       -14.73163
1.156                   0.993876       -15.30722
1.16                   0.9959134       -15.92464
1.164                  0.9984513       -16.60107
1.168                   1.001039        -17.3435
1.172                    1.00321       -18.14764
1.176                   1.004568        -18.9987
1.18                    1.004853       -19.87404
1.184                   1.003989       -20.74689
1.188                   1.002099       -21.59074
1.192                  0.9994905       -22.38376
1.196                  0.9966052       -23.11278
1.2                    0.9939468       -23.77599
1.204                  0.9919917       -24.38391
1.208                  0.9911017       -24.95798
1.212                  0.9914541       -25.52701
1.216                  0.9930032       -26.12185
1.22                   0.9954858       -26.76956
1.224                  0.9984661        -27.4883
1.228                   1.001413       -28.28409
1.232                   1.003795       -29.14988
1.236                   1.005171       -30.06693
1.24                    1.005269       -31.00799
1.244                   1.004034       -31.94174
1.248                   1.001642       -32.83786
1.252                   0.998479       -33.67202
1.256                  0.9950755       -34.43045
1.26                   0.9920244       -35.11291
1.264                  0.9898737       -35.73358
1.268                  0.9890249       -36.31929
1.272                  0.9896535       -36.90493
1.276                  0.9916698       -37.52695
1.28                   0.9947303       -38.21639
1.284                  0.9982962       -38.99307
1.288                    1.00173       -39.86203
1.292                   1.004406       -40.81293
1.296                   1.005821       -41.82191
1.3                     1.005679       -42.85571
1.304                   1.003946       -43.87678
1.308                   1.000863       -44.84935
1.312                  0.9969146       -45.74526
1.316                  0.9927563        -46.5493
1.32                   0.9891061        -47.2628
1.324                  0.9866191       -47.90469
1.328                  0.9857624       -48.50914
1.332                  0.9867209       -49.11972
1.336                  0.9893519       -49.78127
1.34                   0.9932046       -50.53109
1.344                  0.9975967       -51.39204
1.348                   1.001736       -52.36849
1.352                   1.004857       -53.44595
1.356                   1.006352       -54.59381
1.36                    1.005876       -55.77026
1.364                   1.003411       -56.92871
1.368                  0.9992762       -58.02485
1.372                  0.9940965       -59.02393
1.376                  0.9887071       -59.90743
1.38                   0.9840232       -60.67784
1.384                  0.9808764       -61.36043
1.388                  0.9798569       -62.00037
1.392                  0.9811866       -62.65514
1.396                  0.9846625       -63.38357
1.4                    0.9896798       -64.23436
1.404                  0.9953365       -65.23678
1.408                    1.00059       -66.39579
1.412                   1.004436       -67.69194
1.416                   1.006075       -69.08505
1.42                     1.00505       -70.52052
1.424                   1.001325       -71.93711
1.428                   0.995315        -73.2757
1.432                  0.9878471       -74.48863
1.436                  0.9800499       -75.54903
1.44                   0.9731842       -76.45849
1.444                  0.9684247         -77.251
1.448                  0.9666297       -77.99056
1.452                  0.9681494       -78.76111
1.456                  0.9727267       -79.65051
1.46                    0.979517       -80.73317
1.464                  0.9872281       -82.05585
1.468                  0.9943397       -83.63068
1.472                  0.9993528       -85.43501
1.476                   1.001026       -87.41662
1.48                     0.99857       -89.50177
1.484                  0.9917775       -91.60462
1.488                   0.981093       -93.63786
1.492                  0.9676014       -95.52478
1.496                  0.9529254         -97.214
1.5                    0.9390209       -98.69526
1.504                  0.9278621       -100.0134
1.508                  0.9210516       -101.2738
1.512                  0.9194293       -102.6331
1.516                  0.9227951       -104.2737
1.52                    0.929838       -106.3702
1.524                  0.9382955       -109.0611
1.528                  0.9452774       -112.4338
1.532                  0.9476488       -116.5281
1.536                  0.9423824       -121.3483
1.54                   0.9268345       -126.8806
1.544                   0.898939       -133.1107
1.548                  0.8573357       -140.0401
1.552                  0.8014532       -147.7053
1.556                  0.7315761       -156.2065
1.56                   0.6489375       -165.7576
1.564                  0.5559208       -176.7912
1.568                  0.4566009        169.8088
1.572                  0.3582822        152.1894
1.576                   0.275725        126.7788
1.58                   0.2373047        90.83215
1.584                  0.2665207        53.77537
1.588                  0.3445527        26.88881
1.592                  0.4413775        8.419822
1.596                  0.5405999       -5.435459
1.6                    0.6342415       -16.73517
1.604                  0.7179478        -26.4613
1.608                  0.7891935       -35.09279
1.612                  0.8466512       -42.86746
1.616                  0.8899541       -49.89878
1.62                   0.9195895       -56.23191
1.624                   0.936827       -61.87412
1.628                  0.9436334       -66.81464
1.632                  0.9425499       -71.04152
1.636                  0.9365075       -74.55827
1.64                   0.9285675       -77.40041
1.644                  0.9215898       -79.64847
1.648                  0.9178671       -81.43149
1.652                  0.9188077        -82.9155
1.656                  0.9247624       -84.27774
1.66                   0.9350659       -85.67466
1.664                  0.9482776       -87.21643
1.668                  0.9625448       -88.95576
1.672                   0.975979       -90.89125
1.676                  0.9869662        -92.9798
1.68                   0.9943789       -95.15168
1.684                  0.9976863       -97.32477
1.688                  0.9969755       -99.41666
1.692                  0.9928994       -101.3548
1.696                  0.9865586       -103.0857
1.7                    0.9793299       -104.5822
1.704                  0.9726518       -105.8492
1.708                  0.9677942       -106.9242
1.712                  0.9656494       -107.8716
1.716                  0.9665879       -108.7717
1.72                   0.9704167       -109.7045
1.724                  0.9764473        -110.735
1.728                  0.9836539       -111.9022
1.732                  0.9908786       -113.2158
1.736                  0.9970345       -114.6577
1.74                    1.001274       -116.1888
1.744                   1.003101       -117.7571
1.748                   1.002425       -119.3064
1.752                  0.9995512       -120.7842
1.756                  0.9951166       -122.1491
1.76                   0.9899841       -123.3771
1.764                  0.9850987       -124.4652
1.768                  0.9813308       -125.4326
1.772                   0.979329       -126.3173
1.776                  0.9794142       -127.1696
1.78                   0.9815311       -128.0423
1.784                  0.9852761       -128.9806
1.788                  0.9899856       -130.0148
1.792                  0.9948662       -131.1556
1.796                  0.9991357       -132.3944
1.8                     1.002152       -133.7064
1.804                   1.003506       -135.0557
1.808                   1.003075       -136.4016
1.812                   1.001027       -137.7047
1.816                   0.997788        -138.933
1.82                   0.9939627       -140.0667
1.824                  0.9902362        -141.101
1.828                  0.9872575       -142.0473
1.832                  0.9855297       -142.9314
1.836                  0.9853265       -143.7887
1.84                   0.9866501       -144.6575
1.844                  0.9892405       -145.5721
1.848                  0.9926317       -146.5568
1.852                  0.9962418        -147.622
1.856                  0.9994766       -148.7637
1.86                    1.001829       -149.9651
1.864                   1.002958          -151.2
1.868                   1.002733       -152.4375
1.872                   1.001249       -153.6472
1.876                  0.9988056       -154.8032
1.88                   0.9958487       -155.8889
1.884                  0.9928989       -156.8988
1.888                  0.9904621       -157.8399
1.892                  0.9889449       -158.7306
1.896                  0.9885857        -159.597
1.9                    0.9894189       -160.4683
1.904                  0.9912743       -161.3716
1.908                   0.993814       -162.3268
1.912                  0.9965976       -163.3442
1.916                  0.9991598       -164.4223
1.92                     1.00109       -165.5498
1.924                   1.002097       -166.7071
1.928                   1.002049       -167.8706
1.932                   1.000991       -169.0159
1.936                  0.9991335       -170.1218
1.94                   0.9968103       -171.1738
1.944                  0.9944243       -172.1662
1.948                   0.992379        -173.103
1.952                  0.9910106       -173.9969
1.956                  0.9905322       -174.8676
1.96                   0.9910014       -175.7378
1.964                  0.9923136       -176.6292
1.968                  0.9942264       -177.5589
1.972                  0.9964051       -178.5364
1.976                  0.9984826       -179.5627
1.98                    1.000122        179.3697
1.984                   1.001068        178.2748
1.988                   1.001189        177.1712
1.992                   1.000489         176.078
1.996                  0.9991073         175.013
2                      0.9972882         173.989
2.004                  0.9953417         173.012
2.008                  0.9935906         172.081
2.012                   0.992317        171.1873
2.016                   0.991717        170.3165
2.02                   0.9918688        169.4513
2.024                  0.9927242         168.574
2.028                  0.9941204          167.67
2.032                  0.9958107        166.7298
2.036                  0.9975088        165.7505
2.04                   0.9989373        164.7361
2.044                  0.9998706         163.696
2.048                    1.00017         162.644
2.052                  0.9998027        161.5952
2.056                  0.9988415        160.5644
2.06                   0.9974519         159.563
2.064                   0.995863        158.5982
2.068                  0.9943294        157.6711
2.072                  0.9930902        156.7772
2.076                  0.9923305        155.9069
2.08                   0.9921542        155.0473
2.084                  0.9925678        154.1843
2.088                  0.9934838        153.3051
2.092                  0.9947369        152.4001
2.096                  0.9961133        151.4642
2.1                    0.9973865        150.4976
2.104                  0.9983519        149.5055
2.108                  0.9988585        148.4971
2.112                  0.9988289        147.4837
2.116                  0.9982688        146.4776
2.12                   0.9972654        145.4897
2.124                  0.9959698         144.528
2.128                  0.9945747        143.5969
2.132                  0.9932843        142.6959
2.136                  0.9922825        141.8202
2.14                   0.9917068        140.9613
2.144                  0.9916268        140.1084
2.148                  0.9920353        139.2497
2.152                   0.992851         138.375
2.156                   0.993931        137.4764
2.16                   0.9950945          136.55
2.164                  0.9961485         135.596
2.168                  0.9969172        134.6186
2.172                  0.9972659        133.6257
2.176                  0.9971216        132.6272
2.18                   0.9964818         131.634
2.184                  0.9954162        130.6562
2.188                  0.9940562        129.7017
2.192                  0.9925782        128.7754
2.196                  0.9911788        127.8776
2.2                    0.9900456        127.0045
2.204                  0.9893297        126.1483
2.208                  0.9891229        125.2982
2.212                  0.9894403         124.442
2.216                  0.9902163        123.5677
2.22                   0.9913123        122.6657
2.224                  0.9925342        121.7299
2.228                  0.9936599         120.759
2.232                  0.9944712        119.7564
2.236                  0.9947878        118.7304
2.24                   0.9944939        117.6924
2.244                  0.9935601        116.6561
2.248                  0.9920514         115.635
2.252                  0.9901241        114.6403
2.256                  0.9880064        113.6796
2.26                   0.9859684        112.7545
2.264                  0.9842806        111.8605
2.268                  0.9831715        110.9867
2.272                  0.9827854        110.1171
2.276                  0.9831528        109.2331
2.28                   0.9841772         108.316
2.284                   0.985642        107.3505
2.288                  0.9872387        106.3268
2.292                  0.9886115        105.2429
2.296                  0.9894118        104.1048
2.3                    0.9893547        102.9263
2.304                  0.9882678        101.7264
2.308                  0.9861271        100.5274
2.312                   0.983071        99.35096
2.316                  0.9793915        98.21462
2.32                   0.9754976        97.12828
2.324                  0.9718574        96.09136
2.328                  0.9689211        95.09141
2.332                  0.9670387        94.10466
2.336                  0.9663876         93.0989
2.34                   0.9669219        92.03813
2.344                  0.9683611        90.88857
2.348                  0.9702187         89.6243
2.352                  0.9718684        88.23168