! TOUCHSTONE file generated by CST MICROWAVE STUDIO
! Date and time: Tue Jun 14 13:15:11 2022
! Project name: AppElm_antenne_patch_FR4.cst
! Parameters = {L=45; W=58.5; e=0.035; h=1.6; lambda=0.190476; ls=120; w0=2.54; w1=0.847; ws=120; y0=15.3; y1=23.8}
! Header version: 2018
! Port assignment regex: !\s*Touchstone port\s*([0-9]+)\s*=\s*(CST MWS port|CST DS port)\s*([0-9]+|Zmin|Zmax)\s*\(\"(.*)\"\)(\s*mode\s*([0-9]+))?.*
! Touchstone port assignment:
! Touchstone port 1 = CST MWS port 1 ("")
# GHz S MA R 50
0                      0.9861668              -0
0.004                  0.9869586       -9.960473
0.008                  0.9892281       -19.82788
0.012                  0.9926751       -29.51404
0.016                  0.9968491       -38.93975
0.02                    1.001215        -48.0373
0.024                   1.005228       -56.75162
0.028                   1.008406       -65.04002
0.032                   1.010385       -72.87134
0.036                    1.01097        -80.2249
0.04                    1.010144        -87.0897
0.044                   1.008075       -93.46413
0.048                   1.005084       -99.35601
0.052                   1.001605        -104.783
0.056                  0.9981237       -109.7727
0.06                   0.9951109       -114.3621
0.064                  0.9929574       -118.5962
0.068                  0.9919198       -122.5253
0.072                  0.9920859        -126.201
0.076                  0.9933669       -129.6723
0.08                   0.9955175       -132.9815
0.084                  0.9981794       -136.1616
0.088                   1.000939       -139.2343
0.092                   1.003389       -142.2104
0.096                   1.005189       -145.0913
0.1                      1.00611        -147.871
0.104                    1.00606       -150.5393
0.108                   1.005095       -153.0852
0.112                     1.0034       -155.4996
0.116                   1.001265       -157.7779
0.12                   0.9990347       -159.9219
0.124                  0.9970559       -161.9408
0.128                  0.9956262       -163.8504
0.132                  0.9949479       -165.6718
0.136                  0.9950987       -167.4285
0.14                   0.9960236       -169.1439
0.144                  0.9975471       -170.8374
0.148                  0.9994064       -172.5231
0.152                   1.001295       -174.2074
0.156                   1.002914       -175.8896
0.16                    1.004016       -177.5625
0.164                   1.004443       -179.2144
0.168                   1.004151        179.1688
0.172                   1.003205        177.6008
0.176                   1.001775        176.0925
0.18                    1.000103        174.6504
0.184                  0.9984649        173.2748
0.188                  0.9971245        171.9601
0.192                  0.9962927        170.6948
0.196                  0.9960928        169.4639
0.2                    0.9965419        168.2508
0.204                  0.9975502        167.0399
0.208                  0.9989387        165.8193
0.212                    1.00047        164.5824
0.216                   1.001889        163.3283
0.22                    1.002967        162.0621
0.224                   1.003532        160.7933
0.228                   1.003503        159.5345
0.232                   1.002895        158.2989
0.236                   1.001818         157.098
0.24                    1.000457          155.94
0.244                  0.9990416        154.8283
0.248                  0.9978074        153.7607
0.252                  0.9969578        152.7297
0.256                  0.9966289        151.7238
0.26                   0.9968684        150.7294
0.264                  0.9976273         149.733
0.268                  0.9987703        148.7233
0.272                     1.0001        147.6935
0.276                   1.001391        146.6416
0.28                    1.002427        145.5712
0.284                   1.003038        144.4903
0.288                   1.003128          143.41
0.292                   1.002688        142.3426
0.296                   1.001796        141.2996
0.3                     1.000606        140.2894
0.304                  0.9993235        139.3166
0.308                  0.9981645        138.3805
0.312                  0.9973246        137.4755
0.316                  0.9969445        136.5919
0.32                   0.9970847        135.7175
0.324                  0.9977172        134.8399
0.328                  0.9987293        133.9483
0.332                  0.9999456        133.0356
0.336                   1.001157        132.0994
0.34                    1.002158        131.1425
0.344                    1.00278        130.1718
0.348                   1.002921        129.1977
0.352                   1.002559        128.2318
0.356                    1.00176        127.2853
0.36                     1.00066         126.367
0.364                  0.9994509        125.4816
0.368                  0.9983381        124.6293
0.372                  0.9975128        123.8052
0.376                   0.997116        123.0006
0.38                   0.9972138         122.204
0.384                  0.9977871        121.4035
0.388                  0.9987347        120.5885
0.392                  0.9998914        119.7521
0.396                   1.001057        118.8915
0.4                     1.002031        118.0092
0.404                   1.002647        117.1117
0.408                     1.0028        116.2089
0.412                   1.002466        115.3122
0.416                   1.001703        114.4326
0.42                    1.000643        113.5789
0.424                  0.9994682        112.7559
0.428                  0.9983827        111.9641
0.432                  0.9975737        111.1989
0.436                  0.9971816        110.4518
0.44                   0.9972737        109.7118
0.444                  0.9978331        108.9669
0.448                  0.9987612        108.2069
0.452                  0.9998959        107.4249
0.456                    1.00104        106.6182
0.46                    1.001994         105.789
0.464                   1.002594         104.944
0.468                   1.002736         104.093
0.472                   1.002396        103.2473
0.476                   1.001632        102.4179
0.48                    1.000576        101.6135
0.484                   0.999412         100.839
0.488                  0.9983415        100.0945
0.492                  0.9975515        99.37564
0.496                  0.9971805        98.67372
0.5                    0.9972938        97.97758
0.504                  0.9978716        97.27552
0.508                  0.9988123         96.5573
0.512                  0.9999513        95.81605
0.516                    1.00109        95.04936
0.52                    1.002028        94.25972
0.524                   1.002603          93.454
0.528                   1.002714        92.64224
0.532                    1.00234        91.83592
0.536                   1.001546        91.04599
0.54                    1.000469        90.28109
0.544                  0.9992954        89.54591
0.548                  0.9982309        88.84039
0.552                  0.9974621         88.1596
0.556                  0.9971251        87.49462
0.56                   0.9972801        86.83401
0.564                  0.9979004        86.16592
0.568                  0.9988771        85.48017
0.572                   1.000039        84.77006
0.576                   1.001181        84.03363
0.58                    1.002103        83.27378
0.584                   1.002643        82.49788
0.588                   1.002704        81.71639
0.592                   1.002274        80.94106
0.596                   1.001426        80.18299
0.6                     1.000306        79.45065
0.604                  0.9991094        78.74843
0.608                  0.9980457        78.07574
0.612                  0.9973028        77.42709
0.616                  0.9970131        76.79295
0.62                    0.997229        76.16145
0.624                  0.9979137         75.5205
0.628                  0.9989466        74.85992
0.632                   1.000146        74.17338
0.636                     1.0013         73.4594
0.64                    1.002205        72.72161
0.644                   1.002699        71.96801
0.648                   1.002695        71.20966
0.652                    1.00219        70.45877
0.656                   1.001269        69.72653
0.66                    1.000091        69.02124
0.664                  0.9988622        68.34684
0.668                  0.9977992        67.70203
0.672                  0.9970904        67.08055
0.676                  0.9968635        66.47207
0.68                   0.9971602        65.86412
0.684                  0.9979301        65.24428
0.688                  0.9990379        64.60249
0.692                   1.000288        63.93279
0.696                   1.001459        63.23439
0.7                     1.002343        62.51178
0.704                   1.002783        61.77388
0.708                   1.002697        61.03247
0.712                   1.002098        60.30025
0.716                   1.001086        59.58857
0.72                   0.9998372        58.90551
0.724                  0.9985703        58.25438
0.728                  0.9975094        57.63303
0.732                   0.996844        57.03418
0.736                  0.9966947        56.44655
0.74                   0.9970909        55.85694
0.744                  0.9979645        55.25261
0.748                   0.999162        54.62354
0.752                   1.000472        53.96433
0.756                   1.001661        53.27508
0.76                    1.002517        52.56132
0.764                   1.002888          51.833
0.768                   1.002702        51.10284
0.772                   1.001988        50.38407
0.776                   1.000867        49.68821
0.78                   0.9995336        49.02301
0.784                  0.9982219        48.39102
0.788                  0.9971642        47.78909
0.792                   0.996551        47.20866
0.796                  0.9964942        46.63735
0.8                    0.9970073        46.06113
0.804                  0.9980016        45.46687
0.808                  0.9993017        44.84473
0.812                   1.000677        44.18997
0.816                   1.001882        43.50372
0.82                    1.002702        42.79276
0.824                   1.002986         42.0683
0.828                   1.002679        41.34406
0.832                    1.00183        40.63391
0.836                   1.000581        39.94949
0.84                     0.99915        39.29815
0.844                  0.9977881        38.68155
0.848                  0.9967378        38.09523
0.852                  0.9961884        37.52925
0.856                  0.9962416        36.96992
0.86                   0.9968917        36.40225
0.864                  0.9980254        35.81274
0.868                  0.9994426        35.19177
0.872                   1.000891        34.53541
0.876                   1.002111        33.84605
0.88                    1.002884         33.1319
0.884                   1.003066        32.40561
0.888                   1.002618        31.68205
0.892                   1.001612        30.97576
0.896                   1.000218        30.29853
0.9                     0.998678        29.65717
0.904                  0.9972638        29.05226
0.908                  0.9962279        28.47783
0.912                  0.9957583         27.9223
0.916                  0.9959436         27.3705
0.92                   0.9967551         26.8064
0.924                  0.9980516        26.21605
0.928                  0.9996034         25.5902
0.932                   1.001134        24.92588
0.936                    1.00237        24.22692
0.94                    1.003086        23.50323
0.944                   1.003148        22.76908
0.948                   1.002537        22.04064
0.952                   1.001352        21.33324
0.956                   0.999793        20.65872
0.96                   0.9981325        20.02328
0.964                  0.9966638        19.42619
0.968                  0.9956507        18.85975
0.972                  0.9952787        18.31048
0.976                  0.9956206        17.76148
0.98                   0.9966212        17.19555
0.984                  0.9981059        16.59833
0.988                   0.999812        15.96098
0.992                   1.001435        15.28169
0.996                   1.002684          14.566
1                       1.003331        13.82576
1.004                   1.003251         13.0771
1.008                   1.002449        12.33768
1.012                   1.001054         11.6237
1.016                  0.9993041        10.94708
1.02                   0.9975044        10.31324
1.024                  0.9959737        9.719959
1.028                  0.9949884         9.15747
1.032                   0.994731        8.610074
1.036                  0.9952552        8.058909
1.04                   0.9964744        7.485416
1.044                  0.9981754        6.874784
1.048                   1.000057        6.218671
1.052                   1.001783        5.516653
1.056                   1.003042        4.776258
1.06                    1.003601          4.0116
1.064                   1.003349         3.24097
1.068                   1.002317        2.483765
1.072                   1.000672        1.757198
1.076                  0.9986937        1.073284
1.08                   0.9967264       0.4365622
1.084                  0.9951195      -0.1569961
1.088                  0.9941641      -0.7195634
1.092                   0.994039       -1.269467
1.096                  0.9947758       -1.827911
1.1                    0.9962504       -2.415056
1.104                  0.9982046       -3.046255
1.108                   1.000291       -3.729246
1.112                   1.002135       -4.462863
1.116                   1.003403       -5.237215
1.12                    1.003855       -6.035555
1.124                   1.003395       -6.836955
1.128                   1.002085       -7.619942
1.132                   1.000136       -8.366082
1.136                  0.9978793       -9.063182
1.14                   0.9957059       -9.707721
1.144                  0.9940024       -10.30585
1.148                  0.9930786       -10.87266
1.152                    0.99311       -11.42965
1.156                   0.994102       -12.00093
1.16                   0.9958861       -12.60862
1.164                  0.9981492       -13.26882
1.168                   1.000488       -13.98861
1.172                   1.002482        -14.7649
1.176                   1.003764       -15.58501
1.18                    1.004091       -16.42893
1.184                   1.003379       -17.27262
1.188                   1.001727       -18.09197
1.192                  0.9994017       -18.86686
1.196                  0.9967945       -19.58478
1.2                    0.9943576       -20.24336
1.204                  0.9925245        -20.8513
1.208                   0.991631       -21.42727
1.212                  0.9918504       -21.99683
1.216                  0.9931578       -22.58776
1.22                   0.9953307       -23.22482
1.224                   0.997987       -23.92517
1.228                   1.000653       -24.69521
1.232                   1.002846       -25.52959
1.236                    1.00416       -26.41222
1.24                    1.004336       -27.31902
1.244                   1.003307       -28.22185
1.248                   1.001217       -29.09314
1.252                  0.9983982       -29.91043
1.256                  0.9953218       -30.66051
1.26                   0.9925194       -31.34221
1.264                  0.9904901       -31.96737
1.268                  0.9896077       -32.55928
1.272                  0.9900484       -33.14885
1.276                  0.9917517       -33.76892
1.28                   0.9944268         -34.448
1.284                  0.9976024       -35.20496
1.288                   1.000709       -36.04565
1.292                    1.00318         -36.962
1.296                   1.004549       -37.93356
1.3                     1.004531       -38.93091
1.304                   1.003074       -39.92041
1.308                   1.000375       -40.86947
1.312                  0.9968532       -41.75207
1.316                  0.9930872       -42.55348
1.32                   0.9897211       -43.27371
1.324                  0.9873514       -43.92851
1.328                  0.9864148       -44.54751
1.332                  0.9871016       -45.16925
1.336                  0.9893108       -45.83408
1.34                   0.9926615       -46.57641
1.344                  0.9965581       -47.41823
1.348                   1.000294       -48.36527
1.352                   1.003174       -49.40622
1.356                   1.004634       -50.51486
1.36                     1.00434       -51.65434
1.364                   1.002245       -52.78289
1.368                  0.9986108       -53.86026
1.372                  0.9939738       -54.85429
1.376                  0.9890708       -55.74701
1.38                   0.9847198       -56.53905
1.384                  0.9816781       -57.25134
1.388                  0.9804979       -57.92288
1.392                  0.9814131       -58.60431
1.396                  0.9842799       -59.34867
1.4                    0.9885919       -60.20093
1.404                  0.9935643       -61.18962
1.408                  0.9982693       -62.32199
1.412                   1.001795       -63.58314
1.416                   1.003399       -64.93896
1.42                    1.002633       -66.34161
1.424                  0.9994231       -67.73639
1.428                  0.9941011       -69.06985
1.432                   0.987372       -70.29816
1.436                  0.9802231       -71.39548
1.44                   0.9737752       -72.36099
1.444                  0.9690908       -73.22251
1.448                  0.9669712       -74.03481
1.452                  0.9677827       -74.87152
1.456                  0.9713577       -75.81159
1.46                   0.9770015       -76.92407
1.464                  0.9836005       -78.25514
1.468                  0.9898098        -79.8208
1.472                  0.9942737       -81.60577
1.476                  0.9958393       -83.56737
1.48                   0.9937385       -85.64241
1.484                  0.9877134        -87.7557
1.488                  0.9780856       -89.82984
1.492                  0.9657495        -91.7963
1.496                   0.952089       -93.60829
1.5                    0.9387997       -95.25451
1.504                   0.927622       -96.77128
1.508                  0.9200064       -98.24777
1.512                  0.9167731       -99.81986
1.516                  0.9178581       -101.6503
1.52                   0.9222244       -103.9011
1.524                  0.9279681       -106.7082
1.528                  0.9325792       -110.1668
1.532                  0.9332732       -114.3302
1.536                  0.9273146       -119.2203
1.54                   0.9122864       -124.8414
1.544                  0.8862905       -131.1979
1.548                  0.8480914       -138.3107
1.552                  0.7972215       -146.2376
1.556                  0.7340778       -155.1007
1.56                   0.6600558        -165.133
1.564                  0.5778042       -176.7593
1.568                  0.4917817        169.2609
1.572                  0.4094647        151.6379
1.576                  0.3434539        128.6521
1.58                   0.3118971        100.0001
1.584                  0.3278398        70.20954
1.588                  0.3840925        45.16791
1.592                  0.4622047        25.93316
1.596                  0.5474552        10.90662
1.6                    0.6309429       -1.399593
1.604                  0.7074238       -11.90263
1.608                  0.7737798       -21.12062
1.612                  0.8282874       -29.33999
1.616                  0.8702815       -36.71476
1.62                   0.8999892       -43.32197
1.624                  0.9184218       -49.19422
1.628                  0.9272709       -54.34159
1.632                  0.9287769       -58.76936
1.636                  0.9255494       -62.49427
1.64                   0.9203237       -65.55973
1.644                  0.9156611       -68.04703
1.648                  0.9136274       -70.07787
1.652                  0.9155166       -71.80442
1.656                  0.9216995       -73.38754
1.66                   0.9316519       -74.96997
1.664                  0.9441544       -76.65457
1.668                  0.9575991       -78.49405
1.672                  0.9703177       -80.49278
1.676                   0.980861       -82.61675
1.68                   0.9881961       -84.80653
1.684                  0.9918155       -86.99016
1.688                  0.9917654        -89.0941
1.692                  0.9886045       -91.05311
1.696                  0.9833025       -92.81855
1.7                    0.9770873       -94.36548
1.704                  0.9712545        -95.6973
1.708                   0.966962        -96.8466
1.712                  0.9650417        -97.8705
1.716                  0.9658674       -98.84066
1.72                   0.9693104       -99.82975
1.724                   0.974791        -100.898
1.728                  0.9814126       -102.0834
1.732                  0.9881393       -103.3977
1.736                  0.9939795       -104.8275
1.74                   0.9981417       -106.3394
1.744                   1.000142       -107.8875
1.748                  0.9998586       -109.4211
1.752                  0.9975314       -110.8919
1.756                  0.9937094       -112.2613
1.76                   0.9891574       -113.5058
1.764                  0.9847292       -114.6207
1.768                  0.9812275       -115.6215
1.772                  0.9792685        -116.541
1.776                  0.9791821       -117.4238
1.78                    0.980962        -118.318
1.784                  0.9842813       -119.2661
1.788                  0.9885645       -120.2977
1.792                  0.9931008       -121.4251
1.796                  0.9971711       -122.6432
1.8                     1.000167       -123.9314
1.804                   1.001679       -125.2581
1.808                   1.001556       -126.5865
1.812                  0.9999111       -127.8801
1.816                  0.9971014       -129.1084
1.82                   0.9936598       -130.2512
1.824                   0.990208       -131.3019
1.828                  0.9873514       -132.2688
1.832                  0.9855791       -133.1736
1.836                  0.9851816       -134.0476
1.84                   0.9862052       -134.9258
1.844                  0.9884527        -135.841
1.848                  0.9915261       -136.8174
1.852                  0.9949033       -137.8671
1.856                  0.9980328       -138.9892
1.86                    1.000425       -140.1703
1.864                   1.001728       -141.3876
1.868                   1.001781       -142.6132
1.872                   1.000629       -143.8183
1.876                  0.9985112       -144.9777
1.88                    0.995819       -146.0739
1.884                  0.9930272       -147.0994
1.888                  0.9906167       -148.0583
1.892                  0.9889932       -148.9655
1.896                    0.98842       -149.8439
1.9                    0.9889757       -150.7206
1.904                  0.9905462        -151.622
1.908                  0.9928493       -152.5686
1.912                  0.9954895       -153.5727
1.916                  0.9980282       -154.6356
1.92                    1.000058       -155.7491
1.924                   1.001269       -156.8965
1.928                   1.001493       -158.0561
1.932                   1.000725       -159.2046
1.936                  0.9991239       -160.3206
1.94                   0.9969779       -161.3883
1.944                  0.9946587       -162.3995
1.948                  0.9925594       -163.3553
1.952                  0.9910285       -164.2655
1.956                  0.9903121       -165.1474
1.96                   0.9905149       -166.0222
1.964                  0.9915853       -166.9118
1.968                  0.9933283       -167.8344
1.972                  0.9954421       -168.8021
1.976                  0.9975727       -169.8186
1.98                   0.9993734       -170.8794
1.984                   1.000561       -171.9727
1.988                   1.000959       -173.0816
1.992                   1.000522       -174.1867
1.996                  0.9993398       -175.2699
2                      0.9976219        -176.316
2.004                   0.995659       -177.3164
2.008                  0.9937772       -178.2692
2.012                  0.9922836       -179.1805
2.016                  0.9914162        179.9375
2.02                   0.9913056        179.0676
2.024                  0.9919552        178.1917
2.028                  0.9932428         177.293
2.032                  0.9949442        176.3591
2.036                  0.9967731        175.3843
2.04                    0.998429        174.3696
2.044                   0.999646        173.3227
2.048                   1.000234        172.2564
2.052                   1.000107        171.1866
2.056                   0.999293        170.1295
2.06                   0.9979302        169.0994
2.064                  0.9962406        168.1063
2.068                  0.9944965        167.1547
2.072                  0.9929754        166.2422
2.076                  0.9919157        165.3607
2.08                   0.9914787         164.497
2.084                  0.9917221        163.6355
2.088                  0.9925933        162.7605
2.092                  0.9939385         161.859
2.096                  0.9955297        160.9227
2.1                    0.9971028        159.9491
2.104                  0.9983993        158.9419
2.108                  0.9992079        157.9101
2.112                  0.9993951        156.8666
2.116                  0.9989258        155.8261
2.12                   0.9978671         154.803
2.124                  0.9963779        153.8088
2.128                  0.9946842         152.851
2.132                  0.9930434        151.9314
2.136                  0.9917051        151.0456
2.14                    0.990871        150.1842
2.144                  0.9906619        149.3338
2.148                  0.9910988        148.4791
2.152                  0.9920993        147.6056
2.156                  0.9934899         146.702
2.16                   0.9950345        145.7615
2.164                  0.9964712        144.7836
2.168                  0.9975532        143.7733
2.172                  0.9980867        142.7407
2.176                  0.9979609        141.6994
2.18                   0.9971657        140.6646
2.184                  0.9957938        139.6503
2.188                  0.9940294        138.6678
2.192                  0.9921205        137.7236
2.196                  0.9903428        136.8181
2.2                    0.9889562        135.9454
2.204                  0.9881635        135.0938
2.208                  0.9880752        134.2478
2.212                  0.9886897        133.3903
2.216                  0.9898902        132.5053
2.22                   0.9914607        131.5808
2.224                  0.9931196        130.6104
2.228                  0.9945609        129.5946
2.232                  0.9955042        128.5407
2.236                  0.9957369        127.4617
2.24                   0.9951509        126.3744
2.244                  0.9937612         125.297
2.248                  0.9917091        124.2463
2.252                  0.9892456        123.2349
2.256                  0.9866959        122.2692
2.26                   0.9844119        121.3476
2.264                  0.9827148          120.46
2.268                  0.9818406        119.5894
2.272                  0.9818947        118.7137
2.276                  0.9828276        117.8097
2.28                   0.9844364        116.8565
2.284                  0.9863903        115.8394
2.288                  0.9882814        114.7522
2.292                  0.9896868        113.5983
2.296                  0.9902361        112.3906
2.3                     0.989672         111.149
2.304                  0.9878967        109.8983
2.308                  0.9849948         108.664
2.312                  0.9812313        107.4684
2.316                  0.9770201        106.3264
2.32                   0.9728666        105.2428
2.324                  0.9692884         104.209
2.328                   0.966726        103.2041
2.332                  0.9654577        102.1961
2.336                  0.9655367        101.1469
2.34                   0.9667628        100.0186
2.344                  0.9687003        98.77941
2.348                   0.970735        97.40919
2.352                  0.9721654        95.90257