! TOUCHSTONE file generated by CST MICROWAVE STUDIO
! Date and time: Tue Jun 14 13:15:15 2022
! Project name: AppElm_antenne_patch_FR4.cst
! Parameters = {L=45; W=58.5; e=0.035; h=1.6; lambda=0.190476; ls=120; w0=2.54; w1=0.847; ws=120; y0=18.9; y1=23.8}
! Header version: 2018
! Port assignment regex: !\s*Touchstone port\s*([0-9]+)\s*=\s*(CST MWS port|CST DS port)\s*([0-9]+|Zmin|Zmax)\s*\(\"(.*)\"\)(\s*mode\s*([0-9]+))?.*
! Touchstone port assignment:
! Touchstone port 1 = CST MWS port 1 ("")
# GHz S MA R 50
0                      0.9884089              -0
0.004                  0.9891151       -9.989714
0.008                  0.9911344       -19.88598
0.012                  0.9941833       -29.60018
0.016                  0.9978399       -39.05249
0.02                    1.001607       -48.17453
0.024                   1.004987       -56.91055
0.028                   1.007547       -65.21739
0.032                   1.008982       -73.06385
0.036                   1.009146       -80.42983
0.04                    1.008072       -87.30567
0.044                   1.005961       -93.69197
0.048                   1.003149       -99.59955
0.052                   1.000061       -105.0496
0.056                  0.9971481       -110.0733
0.06                   0.9948196       -114.7106
0.064                  0.9933846       -119.0082
0.068                  0.9930075       -123.0162
0.072                  0.9936858        -126.784
0.076                  0.9952593       -130.3565
0.08                    0.997439       -133.7705
0.084                  0.9998599        -137.053
0.088                   1.002139       -140.2199
0.092                   1.003937       -143.2777
0.096                   1.005004       -146.2248
0.1                     1.005216       -149.0546
0.104                   1.004585       -151.7585
0.108                   1.003252        -154.329
0.112                   1.001463       -156.7621
0.116                   0.999524       -159.0596
0.12                   0.9977543       -161.2296
0.124                  0.9964337       -163.2868
0.128                  0.9957588       -165.2507
0.132                  0.9958137       -167.1434
0.136                  0.9965594       -168.9868
0.14                   0.9978454       -170.7996
0.144                  0.9994384       -172.5952
0.148                   1.001064       -174.3804
0.152                   1.002454       -176.1552
0.156                   1.003389       -177.9138
0.16                    1.003731       -179.6459
0.164                   1.003445        178.6606
0.168                   1.002599        177.0172
0.172                   1.001351         175.433
0.176                  0.9999218        173.9127
0.18                   0.9985559        172.4555
0.184                  0.9974807        171.0551
0.188                  0.9968696        169.7005
0.192                  0.9968129        168.3776
0.196                  0.9973049        167.0718
0.2                    0.9982468        165.7697
0.204                  0.9994666        164.4619
0.208                    1.00075        163.1434
0.212                   1.001877        161.8151
0.216                   1.002661        160.4823
0.22                    1.002978        159.1543
0.224                   1.002783         157.842
0.228                    1.00212        156.5566
0.232                   1.001111        155.3069
0.236                  0.9999334        154.0984
0.24                   0.9987912        152.9318
0.244                   0.997879        151.8032
0.248                   0.997349        150.7045
0.252                  0.9972847        149.6246
0.256                  0.9976895        148.5516
0.26                   0.9984848        147.4747
0.264                  0.9995269        146.3858
0.268                   1.000632         145.281
0.272                   1.001609         144.161
0.276                   1.002292        143.0309
0.28                    1.002568        141.8988
0.284                   1.002395         140.775
0.288                   1.001808        139.6696
0.292                   1.000913        138.5908
0.296                  0.9998669         137.544
0.3                    0.9988519        136.5303
0.304                  0.9980432        135.5465
0.308                   0.997578        134.5856
0.312                   0.997534        133.6378
0.316                  0.9979143        132.6926
0.32                   0.9986482        131.7403
0.324                  0.9996045        130.7738
0.328                   1.000615        129.7896
0.332                   1.001505        128.7886
0.336                    1.00212        127.7756
0.34                    1.002357        126.7583
0.344                   1.002178        125.7465
0.348                   1.001616        124.7495
0.352                    1.00077        123.7753
0.356                  0.9997905        122.8289
0.36                   0.9988464        121.9113
0.364                  0.9981027        121.0195
0.368                  0.9976882        120.1469
0.372                  0.9976738        119.2844
0.376                  0.9980599         118.422
0.38                   0.9987774        117.5506
0.384                  0.9996993        116.6637
0.388                   1.000664        115.7581
0.392                   1.001503         114.835
0.396                   1.002072        113.8991
0.4                     1.002273        112.9583
0.404                   1.002071        112.0216
0.408                   1.001504        111.0985
0.412                    1.00067        110.1966
0.416                  0.9997164        109.3205
0.42                    0.998809        108.4711
0.424                  0.9981069        107.6452
0.428                  0.9977335        106.8363
0.432                  0.9977539        106.0353
0.436                  0.9981645        105.2326
0.44                   0.9988927        104.4194
0.444                  0.9998105        103.5894
0.448                   1.000757        102.7399
0.452                   1.001567        101.8722
0.456                   1.002098        100.9915
0.46                    1.002258        100.1055
0.464                   1.002019        99.22353
0.468                   1.001422        98.35488
0.472                    1.00057        97.50694
0.476                  0.9996114        96.68414
0.48                   0.9987143        95.88704
0.484                  0.9980359        95.11225
0.488                  0.9976957        94.35287
0.492                  0.9977542        93.59982
0.496                  0.9982015        92.84329
0.5                     0.998959        92.07462
0.504                  0.9998936        91.28778
0.508                   1.000841        90.48045
0.512                   1.001634         89.6543
0.516                   1.002134        88.81479
0.52                    1.002251        87.97014
0.524                   1.001963        87.12989
0.528                   1.001318         86.3033
0.532                   1.000429        85.49775
0.536                  0.9994483         84.7174
0.54                   0.9985487        83.96246
0.544                  0.9978884        83.22906
0.548                  0.9975851        82.50987
0.552                  0.9976934        81.79538
0.556                  0.9981958        81.07558
0.56                   0.9990049         80.3418
0.564                  0.9999786        79.58817
0.568                   1.000946        78.81273
0.572                   1.001736        78.01768
0.576                    1.00221        77.20904
0.58                    1.002282        76.39551
0.584                   1.001936        75.58706
0.588                   1.001231        74.79315
0.592                   1.000289        74.02113
0.596                  0.9992722        73.27494
0.6                    0.9983602        72.55427
0.604                  0.9977145        71.85471
0.608                  0.9974508        71.16824
0.612                  0.9976181        70.48484
0.616                  0.9981893        69.79411
0.62                    0.999065        69.08726
0.624                   1.000092         68.3586
0.628                   1.001089        67.60662
0.632                    1.00188        66.83409
0.636                   1.002324         66.0478
0.64                     1.00234         65.2571
0.644                   1.001922        64.47251
0.648                   1.001138         63.7038
0.652                   1.000124        62.95835
0.656                  0.9990566        62.23978
0.66                   0.9981226        61.54727
0.664                  0.9974887        60.87557
0.668                  0.9972697        60.21591
0.672                  0.9975074         59.5575
0.676                  0.9981628        58.88946
0.68                   0.9991223        58.20281
0.684                   1.000218        57.49203
0.688                   1.001257        56.75613
0.692                   1.002054        55.99868
0.696                   1.002467        55.22725
0.7                      1.00242         54.4521
0.704                   1.001916        53.68442
0.708                   1.001039        52.93435
0.712                  0.9999404        52.20932
0.716                  0.9988114        51.51258
0.72                   0.9978513        50.84264
0.724                  0.9972322        50.19332
0.728                  0.9970671        49.55488
0.732                  0.9973895        48.91563
0.736                  0.9981463        48.26408
0.74                   0.9992063        47.59102
0.744                   1.000384        46.89119
0.748                    1.00147        46.16416
0.752                   1.002273        45.41444
0.756                   1.002647        44.65068
0.76                    1.002521        43.88411
0.764                   1.001911        43.12674
0.768                   1.000919        42.38922
0.772                  0.9997138        41.67898
0.776                  0.9985067        40.99889
0.78                   0.9975105        40.34661
0.784                  0.9969038        39.71488
0.788                   0.996798        39.09276
0.792                  0.9972165         38.4675
0.796                  0.9980893        37.82689
0.8                    0.9992647        37.16147
0.804                   1.000536        36.46624
0.808                   1.001677        35.74151
0.812                   1.002485        34.99287
0.816                   1.002811        34.23019
0.82                    1.002591        33.46591
0.824                   1.001858        32.71298
0.828                   1.000731        31.98259
0.832                  0.9994058         31.2822
0.836                   0.998112        30.61417
0.84                   0.9970796        29.97518
0.844                  0.9964946        29.35665
0.848                  0.9964667        28.74621
0.852                  0.9970065        28.12988
0.856                  0.9980237         27.4946
0.86                    0.999342        26.83063
0.864                    1.00073        26.13327
0.868                   1.001941        25.40375
0.872                   1.002759        24.64893
0.876                   1.003033        23.88011
0.88                    1.002708        23.11118
0.884                   1.001832        22.35616
0.888                   1.000551         21.6269
0.892                  0.9990857         20.9309
0.896                  0.9976917        20.26991
0.9                    0.9966176        19.63942
0.904                  0.9960586        19.02933
0.908                  0.9961209         18.4256
0.912                   0.996801         17.8128
0.916                  0.9979843        17.17689
0.92                   0.9994655        16.50782
0.924                   1.000984        15.80131
0.928                    1.00227        15.05964
0.932                   1.003092        14.29116
0.936                   1.003297        13.50893
0.94                     1.00284        12.72845
0.944                   1.001788        11.96507
0.948                   1.000319        11.23138
0.952                  0.9986818        10.53491
0.956                   0.997165        9.876686
0.96                   0.9960386        9.250824
0.964                  0.9955085         8.64535
0.968                  0.9956773        8.044262
0.972                  0.9965239        7.430381
0.976                  0.9979057        6.788508
0.98                   0.9995827        6.108212
0.984                    1.00126        5.385703
0.988                   1.002639         4.62448
0.992                   1.003471        3.834693
0.996                   1.003601        3.031409
1                       1.002992        2.232082
1.004                   1.001739        1.453624
1.008                    1.00005       0.7095114
1.012                  0.9982161     0.007345924
1.016                  0.9965585      -0.6526897
1.02                   0.9953749       -1.278143
1.024                  0.9948838       -1.883185
1.028                  0.9951837       -2.486191
1.032                  0.9962329        -3.10642
1.036                  0.9978545        -3.76047
1.04                   0.9997673       -4.459223
1.044                   1.001635       -5.205897
1.048                   1.003124       -5.995513
1.052                   1.003966       -6.815783
1.056                   1.003998       -7.649202
1.06                      1.0032       -8.475956
1.064                   1.001693       -9.277212
1.068                   0.999728       -10.03837
1.072                  0.9976403       -10.75161
1.076                  0.9957961        -11.4178
1.08                   0.9945262       -12.04639
1.084                   0.994066       -12.65423
1.088                  0.9945105       -13.26263
1.092                  0.9957936       -13.89341
1.096                   0.997698       -14.56488
1.1                    0.9998923       -15.28863
1.104                    1.00199       -16.06724
1.108                   1.003615       -16.89392
1.112                    1.00447       -17.75389
1.116                   1.004388       -18.62665
1.12                    1.003362       -19.48947
1.124                   1.001547       -20.32119
1.128                  0.9992441       -21.10561
1.132                   0.996846       -21.83475
1.136                  0.9947736       -22.51047
1.14                   0.9934007        -23.1447
1.144                  0.9929856       -23.75758
1.148                    0.99362       -24.37407
1.152                  0.9952093       -25.01932
1.156                  0.9974858       -25.71404
1.16                    1.000056        -26.4706
1.164                   1.002467       -27.29093
1.168                   1.004289       -28.16621
1.172                   1.005188       -29.07844
1.176                   1.004983       -30.00345
1.18                    1.003684       -30.91478
1.184                   1.001487       -31.78802
1.188                  0.9987544       -32.60495
1.192                  0.9959512       -33.35697
1.196                  0.9935698       -34.04714
1.2                    0.9920419       -34.69026
1.204                  0.9916591       -35.31069
1.208                  0.9925132       -35.93813
1.212                  0.9944757       -36.60216
1.216                  0.9972166       -37.32663
1.22                    1.000261       -38.12529
1.224                   1.003073       -38.99939
1.228                   1.005148       -39.93753
1.232                   1.006099       -40.91776
1.236                   1.005727       -41.91107
1.24                    1.004056       -42.88603
1.244                   1.001334       -43.81385
1.248                   0.998001       -44.67323
1.252                  0.9946201       -45.45439
1.256                  0.9917826       -46.16165
1.26                   0.9900039       -46.81344
1.264                  0.9896259       -47.43977
1.268                  0.9907487       -48.07689
1.272                  0.9932036       -48.76067
1.276                  0.9965794        -49.5197
1.28                    1.000292       -50.37001
1.284                   1.003689        -51.3123
1.288                   1.006157       -52.33209
1.292                   1.007234       -53.40217
1.296                   1.006681       -54.48705
1.3                     1.004536       -55.54835
1.304                   1.001109       -56.55085
1.308                  0.9969462       -57.46841
1.312                  0.9927441       -58.28903
1.316                  0.9892382       -59.01807
1.32                   0.9870701       -59.67873
1.324                  0.9866664       -60.30886
1.328                  0.9881487       -60.95439
1.332                  0.9913006       -61.66072
1.336                  0.9955986       -62.46385
1.34                    1.000302       -63.38381
1.344                   1.004582       -64.42115
1.348                   1.007662       -65.55737
1.352                   1.008951       -66.75801
1.356                   1.008142        -67.9781
1.36                    1.005272       -69.16881
1.364                   1.000731       -70.28472
1.368                  0.9952131       -71.29126
1.372                  0.9896198       -72.17156
1.376                  0.9849152       -72.93124
1.38                   0.9819564       -73.59972
1.384                   0.981326       -74.22683
1.388                  0.9832078       -74.87414
1.392                  0.9873324       -75.60326
1.396                  0.9930139       -76.46365
1.4                    0.9992655       -77.48326
1.404                   1.004971       -78.66401
1.408                   1.009071       -79.98223
1.412                   1.010742       -81.39286
1.416                   1.009529       -82.83623
1.42                    1.005435        -84.2462
1.424                  0.9989427       -85.55934
1.428                  0.9909741       -86.72481
1.432                  0.9827714       -87.71431
1.436                  0.9757134       -88.53059
1.44                   0.9710765       -89.21176
1.444                  0.9697828       -89.82853
1.448                  0.9721916        -90.4728
1.452                  0.9779908       -91.23981
1.456                  0.9862262        -92.2086
1.46                   0.9954589       -93.42689
1.464                   1.004009       -94.90386
1.468                   1.010232       -96.61071
1.472                   1.012772       -98.48665
1.476                   1.010775       -100.4475
1.48                    1.004032       -102.3957
1.484                  0.9930645       -104.2313
1.488                  0.9791145       -105.8645
1.492                  0.9640499       -107.2329
1.496                  0.9501399       -108.3192
1.5                    0.9397023       -109.1686
1.504                  0.9346457        -109.896
1.508                  0.9360017       -110.6749
1.512                  0.9435854       -111.7055
1.516                  0.9559108       -113.1737
1.52                   0.9703837        -115.216
1.524                  0.9836863       -117.9042
1.528                  0.9922197        -121.249
1.532                  0.9924936       -125.2144
1.536                  0.9814232       -129.7344
1.54                   0.9565231       -134.7255
1.544                  0.9160265        -140.094
1.548                  0.8589441       -145.7365
1.552                  0.7850844       -151.5335
1.556                  0.6950484       -157.3309
1.56                   0.5902181       -162.8945
1.564                   0.472781        -167.787
1.568                  0.3459645       -170.9606
1.572                   0.215485       -168.8754
1.576                  0.1032393       -141.8993
1.58                   0.1256854       -72.00808
1.584                  0.2477735       -55.72864
1.588                   0.378349       -55.64762
1.592                  0.5034286       -59.43573
1.596                  0.6182318       -64.58111
1.6                    0.7198178       -70.26282
1.604                  0.8061808       -76.11424
1.608                  0.8761045       -81.92784
1.612                  0.9291548       -87.56052
1.616                  0.9656956       -92.89741
1.62                   0.9868912       -97.83695
1.624                   0.994682       -102.2862
1.628                  0.9917157        -106.163
1.632                  0.9812171       -109.4049
1.636                   0.966773        -111.983
1.64                   0.9520119       -113.9194
1.644                  0.9401885       -115.3011
1.648                  0.9337303       -116.2806
1.652                  0.9338698       -117.0552
1.656                  0.9404984       -117.8284
1.66                   0.9523148       -118.7674
1.664                  0.9672136       -119.9746
1.668                  0.9827762       -121.4808
1.672                  0.9967219        -123.256
1.676                   1.007242       -125.2278
1.68                    1.013196       -127.3002
1.684                   1.014195       -129.3694
1.688                   1.010585       -131.3364
1.692                   1.003358       -133.1174
1.696                  0.9939891        -134.654
1.7                    0.9842177       -135.9219
1.704                  0.9757771       -136.9367
1.708                  0.9701114       -137.7539
1.712                  0.9681291       -138.4601
1.716                  0.9700539       -139.1565
1.72                   0.9754126       -139.9379
1.724                  0.9831659       -140.8745
1.728                  0.9919372       -142.0012
1.732                   1.000277       -143.3162
1.736                   1.006904       -144.7859
1.74                    1.010895       -146.3544
1.744                   1.011789        -147.954
1.748                   1.009631       -149.5151
1.752                   1.004938       -150.9754
1.756                  0.9986092       -152.2885
1.76                     0.99178       -153.4304
1.764                  0.9856393       -154.4045
1.768                  0.9812306       -155.2417
1.772                  0.9792731       -155.9959
1.776                  0.9800394       -156.7333
1.78                   0.9833187       -157.5203
1.784                  0.9884756       -158.4101
1.788                  0.9945847       -159.4338
1.792                   1.000608       -160.5972
1.796                   1.005574       -161.8819
1.8                     1.008731       -163.2508
1.804                   1.009651       -164.6552
1.808                    1.00828       -166.0424
1.812                   1.004929       -167.3636
1.816                   1.000223       -168.5806
1.82                   0.9949905       -169.6718
1.824                  0.9901324       -170.6357
1.828                  0.9864691        -171.492
1.832                  0.9846004       -172.2785
1.836                  0.9848028       -173.0439
1.84                   0.9869871       -173.8391
1.844                  0.9907257       -174.7071
1.848                  0.9953422       -175.6755
1.852                   1.000039       -176.7532
1.856                   1.004039       -177.9295
1.86                    1.006709       -179.1783
1.864                   1.007659        179.5377
1.868                   1.006786        178.2603
1.872                   1.004289        177.0294
1.876                   1.000624        175.8775
1.88                    0.996433        174.8243
1.884                  0.9924323        173.8735
1.888                  0.9892961        173.0121
1.892                  0.9875401         172.212
1.896                  0.9874332        171.4354
1.9                    0.9889544        170.6413
1.904                  0.9918042        169.7939
1.908                  0.9954657        168.8682
1.912                  0.9993031        167.8542
1.916                   1.002673        166.7575
1.92                    1.005033        165.5975
1.924                   1.006022        164.4034
1.928                   1.005514        163.2091
1.932                    1.00363        162.0483
1.936                   1.000714        160.9492
1.94                   0.9972734        159.9297
1.944                  0.9938942        158.9954
1.948                  0.9911437        158.1374
1.952                  0.9894735        157.3346
1.956                  0.9891427        156.5569
1.96                   0.9901759        155.7706
1.964                  0.9923637        154.9451
1.968                  0.9953063        154.0579
1.972                  0.9984885        153.0983
1.976                   1.001372        152.0686
1.98                    1.003483        150.9829
1.984                   1.004491        149.8641
1.988                   1.004253        148.7405
1.992                   1.002834        147.6405
1.996                   1.000491        146.5886
2                      0.9976258        145.6017
2.004                  0.9947231        144.6862
2.008                  0.9922643        143.8369
2.012                   0.990649        143.0379
2.016                  0.9901266        142.2651
2.02                   0.9907564        141.4908
2.024                  0.9924006        140.6885
2.028                   0.994754         139.838
2.032                  0.9974014         138.928
2.036                  0.9998907         137.958
2.04                     1.00181        136.9379
2.044                   1.002853        135.8855
2.048                   1.002863        134.8237
2.052                   1.001856        133.7765
2.056                   1.000015        132.7655
2.06                   0.9976502        131.8065
2.064                  0.9951562        130.9068
2.068                  0.9929397        130.0643
2.072                  0.9913544        129.2676
2.076                  0.9906421        128.4983
2.08                   0.9908929        127.7336
2.084                  0.9920341        126.9511
2.088                  0.9938471        126.1323
2.092                  0.9960074        125.2654
2.096                  0.9981433        124.3476
2.1                    0.9998988        123.3844
2.104                   1.000989        122.3888
2.108                   1.001243        121.3788
2.112                   1.000629        120.3742
2.116                  0.9992534        119.3939
2.12                   0.9973412        118.4526
2.124                  0.9951981         117.559
2.128                  0.9931601        116.7142
2.132                  0.9915389        115.9113
2.136                   0.990572        115.1373
2.14                    0.990385        114.3747
2.144                  0.9909742        113.6046
2.148                  0.9922104        112.8102
2.152                  0.9938641        111.9792
2.156                   0.995646        111.1057
2.16                   0.9972549        110.1908
2.164                  0.9984249         109.242
2.168                  0.9989652         108.272
2.172                  0.9987862        107.2963
2.176                  0.9979097        106.3308
2.18                   0.9964624        105.3898
2.184                  0.9946543        104.4834
2.188                  0.9927455        103.6165
2.192                  0.9910055        102.7879
2.196                  0.9896731        101.9904
2.2                    0.9889199        101.2123
2.204                  0.9888262        100.4388
2.208                  0.9893703        99.65466
2.212                   0.990434        98.84632
2.216                  0.9918232        98.00402
2.22                   0.9932977        97.12305
2.224                  0.9946075        96.20418
2.228                  0.9955278         95.2534
2.232                  0.9958904        94.28088
2.236                  0.9956057        93.29946
2.24                   0.9946731        92.32294
2.244                  0.9931819        91.36409
2.248                  0.9912984        90.43308
2.252                  0.9892445        89.53593
2.256                  0.9872682         88.6736
2.26                   0.9856097        87.84156
2.264                   0.984468        87.03025
2.268                  0.9839711        86.22618
2.272                  0.9841556        85.41366
2.276                   0.984958        84.57692
2.28                   0.9862198        83.70238
2.284                  0.9877061         82.7806
2.288                  0.9891349        81.80764
2.292                  0.9902151        80.78574
2.296                  0.9906853        79.72312
2.3                    0.9903525        78.63315
2.304                  0.9891218        77.53266
2.308                  0.9870176        76.43983
2.312                  0.9841883        75.37169
2.316                  0.9808962        74.34147
2.32                   0.9774883        73.35604
2.324                   0.974352        72.41395
2.328                   0.971858        71.50447
2.332                   0.970299        70.60786
2.336                  0.9698323        69.69754
2.34                   0.9704396        68.74342
2.344                  0.9719105        67.71642
2.348                  0.9738574        66.59297
2.352                  0.9757597        65.35896