! TOUCHSTONE file generated by CST MICROWAVE STUDIO
! Date and time: Tue Jun 14 13:15:10 2022
! Project name: AppElm_antenne_patch_FR4.cst
! Parameters = {L=45; W=58.5; e=0.035; h=1.6; lambda=0.190476; ls=120; w0=2.54; w1=0.847; ws=120; y0=14.4; y1=23.8}
! Header version: 2018
! Port assignment regex: !\s*Touchstone port\s*([0-9]+)\s*=\s*(CST MWS port|CST DS port)\s*([0-9]+|Zmin|Zmax)\s*\(\"(.*)\"\)(\s*mode\s*([0-9]+))?.*
! Touchstone port assignment:
! Touchstone port 1 = CST MWS port 1 ("")
# GHz S MA R 50
0                      0.9861708              -0
0.004                  0.9869645       -9.961772
0.008                  0.9892397          -19.83
0.012                  0.9926938       -29.51609
0.016                  0.9968743       -38.94045
0.02                    1.001243       -48.03513
0.024                   1.005255       -56.74485
0.028                   1.008424       -65.02684
0.032                   1.010389       -72.84993
0.036                   1.010955       -80.19346
0.04                     1.01011       -87.04659
0.044                   1.008022       -93.40785
0.048                   1.005019       -99.28532
0.052                   1.001536        -104.697
0.056                  0.9980601       -109.6707
0.06                   0.9950633       -114.2441
0.064                  0.9929344       -118.4623
0.068                  0.9919261       -122.3759
0.072                  0.9921218       -126.0366
0.076                  0.9934273       -129.4936
0.08                    0.995593        -132.789
0.084                  0.9982574       -135.9555
0.088                   1.001006       -139.0145
0.092                   1.003433       -141.9767
0.096                   1.005201        -144.843
0.1                     1.006086       -147.6074
0.104                   1.006003       -150.2597
0.108                   1.005011       -152.7889
0.112                   1.003303       -155.1862
0.116                   1.001169       -157.4473
0.12                   0.9989543       -159.5744
0.124                  0.9970044        -161.577
0.128                  0.9956119       -163.4711
0.132                   0.994973       -165.2779
0.136                  0.9951586       -167.0211
0.14                   0.9961079       -168.7238
0.144                   0.997641       -170.4051
0.148                  0.9994933       -172.0786
0.152                    1.00136       -173.7505
0.156                   1.002944       -175.4197
0.16                    1.004007       -177.0788
0.164                   1.004396        -178.716
0.168                   1.004072        179.6827
0.172                   1.003109        178.1306
0.176                   1.001678        176.6385
0.18                    1.000022        175.2124
0.184                  0.9984137        173.8522
0.188                  0.9971134        172.5519
0.192                  0.9963244        171.3001
0.196                  0.9961625        170.0815
0.2                    0.9966385        168.8799
0.204                  0.9976578        167.6799
0.208                  0.9990392        166.4702
0.212                   1.000547        165.2444
0.216                    1.00193        164.0021
0.22                    1.002965        162.7486
0.224                   1.003488        161.4936
0.228                   1.003426        160.2493
0.232                   1.002799        159.0288
0.236                    1.00172        157.8432
0.24                    1.000375        156.7003
0.244                  0.9989907        155.6031
0.248                  0.9977982         154.549
0.252                  0.9969925        153.5304
0.256                  0.9967029        152.5359
0.26                    0.996969        151.5519
0.264                  0.9977375        150.5653
0.268                  0.9988713        149.5655
0.272                   1.000175        148.5458
0.276                   1.001426        147.5049
0.28                    1.002416        146.4465
0.284                   1.002984        145.3786
0.288                    1.00304        144.3121
0.292                    1.00258        143.2592
0.296                   1.001688        142.2307
0.3                     1.000518        141.2348
0.304                  0.9992699        140.2757
0.308                   0.998155        139.3522
0.312                  0.9973615        138.4586
0.316                  0.9970208        137.5853
0.32                    0.997187        136.7204
0.324                   0.997827        135.8517
0.328                  0.9988268         134.969
0.332                   1.000013        134.0657
0.336                   1.001182        133.1398
0.34                    1.002135        132.1942
0.344                   1.002712        131.2359
0.348                   1.002819         130.275
0.352                   1.002441         129.323
0.356                   1.001646        128.3905
0.36                     1.00057        127.4858
0.364                  0.9993989        126.6132
0.368                  0.9983338        125.7726
0.372                  0.9975568         124.959
0.376                  0.9971999        124.1637
0.38                   0.9973223        123.3755
0.384                  0.9979003         122.583
0.388                  0.9988317        121.7762
0.392                  0.9999541        120.9485
0.396                   1.001073        120.0977
0.4                     1.001997        119.2261
0.404                   1.002568        118.3406
0.408                    1.00269        117.4506
0.412                   1.002343        116.5673
0.416                   1.001588        115.7011
0.42                    1.000557        114.8604
0.424                  0.9994261        114.0494
0.428                  0.9983923        113.2685
0.432                  0.9976336        112.5128
0.436                  0.9972813         111.774
0.44                   0.9973956        111.0415
0.444                  0.9979555        110.3038
0.448                  0.9988623        109.5513
0.452                  0.9999575        108.7774
0.456                   1.001051          107.98
0.46                    1.001952        107.1613
0.464                   1.002507        106.3279
0.468                   1.002619        105.4895
0.472                    1.00227        104.6569
0.476                    1.00152        103.8405
0.48                    1.000499        103.0484
0.484                  0.9993841        102.2852
0.488                  0.9983686        101.5507
0.492                  0.9976301        100.8404
0.496                  0.9972975         100.146
0.5                    0.9974289        99.45658
0.504                   0.998001        98.76105
0.508                  0.9989135        98.04975
0.512                   1.000006         97.3163
0.516                   1.001088        96.55865
0.52                    1.001971        95.77941
0.524                     1.0025        94.98532
0.528                   1.002584        94.18605
0.532                   1.002206         93.3926
0.536                   1.001432        92.61538
0.54                    1.000395        91.86239
0.544                  0.9992763        91.13794
0.548                  0.9982703        90.44171
0.552                  0.9975535        89.76883
0.556                  0.9972525        89.11059
0.56                   0.9974204         88.4561
0.564                   0.998028        87.79406
0.568                  0.9989684        87.11492
0.572                   1.000077        86.41253
0.576                   1.001157        85.68521
0.58                    1.002021        84.93594
0.584                   1.002515        84.17187
0.588                   1.002553        83.40307
0.592                   1.002125        82.64068
0.596                   1.001305        81.89521
0.6                     1.000234        81.17451
0.604                  0.9990982        80.48257
0.608                  0.9980973        79.81861
0.612                  0.9974074        79.17723
0.616                   0.997151        78.54925
0.62                   0.9973743        77.92337
0.624                  0.9980387        77.28816
0.628                  0.9990272        76.63414
0.632                   1.000166        75.95546
0.636                   1.001253        75.25088
0.64                    1.002098        74.52407
0.644                    1.00255        73.78272
0.648                   1.002527        73.03742
0.652                   1.002032        72.29969
0.656                   1.001148        71.58004
0.66                    1.000029        70.88622
0.664                  0.9988691         70.2217
0.668                  0.9978734        69.58511
0.672                  0.9972182        68.97033
0.676                  0.9970209         68.3675
0.68                   0.9973183         67.7648
0.684                  0.9980591        67.15056
0.688                   0.999113         66.5154
0.692                   1.000294        65.85386
0.696                   1.001393         65.1654
0.7                     1.002216        64.45439
0.704                   1.002615        63.72936
0.708                   1.002517        63.00151
0.712                   1.001937        62.28281
0.716                   1.000973        61.58386
0.72                   0.9997926        60.91215
0.724                  0.9986018        60.27059
0.728                  0.9976115        59.65701
0.732                  0.9969982        59.06438
0.736                   0.996873          58.482
0.74                   0.9972605        57.89744
0.744                  0.9980936        57.29874
0.748                  0.9992257        56.67665
0.752                   1.000456        56.02622
0.756                   1.001567        55.34769
0.76                     1.00236        54.64641
0.764                   1.002693        53.93186
0.768                   1.002502        53.21605
0.772                   1.001818        52.51135
0.776                   1.000756        51.82852
0.78                   0.9995004        51.17469
0.784                  0.9982716        50.55212
0.788                  0.9972873        49.95762
0.792                  0.9967238        49.38308
0.796                  0.9966837        48.81681
0.8                    0.9971768        48.24565
0.804                  0.9981172        47.65735
0.808                   0.999339        47.04282
0.812                   1.000625        46.39775
0.816                   1.001746        45.72336
0.82                    1.002501         45.0261
0.824                   1.002753         44.3166
0.828                   1.002451         43.6077
0.832                   1.001643         42.9124
0.836                   1.000466        42.24147
0.84                   0.9991252        41.60167
0.844                  0.9978545        40.99439
0.848                  0.9968806        40.41528
0.852                  0.9963782        39.85496
0.856                  0.9964399        39.30058
0.86                   0.9970577        38.73815
0.864                  0.9981237        38.15511
0.868                  0.9994492        37.54263
0.872                   1.000798        36.89715
0.876                   1.001929        36.22102
0.88                    1.002638        35.52206
0.884                   1.002795        34.81211
0.888                   1.002364        34.10507
0.892                   1.001415        33.41451
0.896                   1.000109        32.75129
0.9                    0.9986727        32.12163
0.904                  0.9973592        31.52592
0.908                  0.9964028        30.95845
0.912                  0.9959764        30.40834
0.916                  0.9961601        29.86143
0.92                    0.996925         29.3028
0.924                  0.9981373        28.71959
0.928                  0.9995824        28.10328
0.932                   1.001003        27.45123
0.936                   1.002143        26.76713
0.94                    1.002797        26.06031
0.944                   1.002843        25.34407
0.948                   1.002263        24.63348
0.952                   1.001152        23.94275
0.956                  0.9996986        23.28278
0.96                   0.9981563        22.65918
0.964                  0.9967972        22.07113
0.968                   0.995865        21.51133
0.972                  0.9955299        20.96721
0.976                  0.9958569        20.42305
0.98                   0.9967924        19.86295
0.984                  0.9981728        19.27369
0.988                  0.9997537        18.64716
0.992                   1.001253        17.98181
0.996                     1.0024        17.28289
1                       1.002986        16.56148
1.004                   1.002899        15.83256
1.008                   1.002144        15.11252
1.012                   1.000843        14.41629
1.016                   0.999218        13.75481
1.02                   0.9975523        13.13295
1.024                  0.9961405        12.54848
1.028                  0.9952366        11.99227
1.032                  0.9950073        11.44971
1.036                  0.9954997        10.90337
1.04                   0.9966315        10.33615
1.044                  0.9982044         9.73447
1.048                   0.999939        9.090721
1.052                   1.001525        8.404631
1.056                   1.002675        7.683246
1.06                    1.003177        6.939691
1.064                    1.00293          6.1909
1.068                   1.001965        5.454774
1.072                   1.000438        4.747134
1.076                  0.9986082        4.078941
1.08                   0.9967945        3.454214
1.084                  0.9953178        2.869079
1.088                  0.9944446        2.312194
1.092                  0.9943373        1.766619
1.096                  0.9950225        1.212838
1.1                    0.9963839       0.6323615
1.104                  0.9981819      0.01115305
1.108                   1.000096      -0.6578095
1.112                   1.001783       -1.373315
1.116                   1.002935         -2.1262
1.12                    1.003336       -2.900908
1.124                   1.002897       -3.678239
1.128                   1.001679       -4.438382
1.132                  0.9998784       -5.164506
1.136                  0.9978001       -5.845543
1.14                   0.9958046       -6.478446
1.144                  0.9942455       -7.069043
1.148                  0.9934051       -7.631302
1.152                  0.9934416       -8.185021
1.156                  0.9943573       -8.752257
1.16                   0.9959957       -9.353239
1.164                  0.9980681        -10.0026
1.168                   1.000204       -10.70674
1.172                   1.002018        -11.4627
1.176                   1.003177       -12.25876
1.18                    1.003457        -13.0765
1.184                   1.002787       -13.89384
1.188                   1.001259       -14.68872
1.192                   0.999119       -15.44282
1.196                  0.9967274       -16.14487
1.2                    0.9944981       -16.79292
1.204                  0.9928262       -17.39512
1.208                   0.992016       -17.96869
1.212                  0.9922227       -18.53701
1.216                  0.9934204       -19.12542
1.22                   0.9954039       -19.75644
1.224                  0.9978226       -20.44561
1.228                   1.000244       -21.19868
1.232                   1.002227       -22.01063
1.236                   1.003404       -22.86667
1.24                    1.003539       -23.74473
1.244                   1.002576        -24.6191
1.248                   1.000648       -25.46462
1.252                  0.9980622       -26.26097
1.256                  0.9952486       -26.99633
1.26                    0.992692       -27.66992
1.264                  0.9908446       -28.29274
1.268                  0.9900437       -28.88618
1.272                  0.9904457       -29.47837
1.276                  0.9919924       -30.09911
1.28                   0.9944169       -30.77422
1.284                  0.9972887       -31.52075
1.288                    1.00009        -32.3439
1.292                   1.002307       -33.23623
1.296                   1.003517       -34.17904
1.3                     1.003464       -35.14548
1.304                   1.002104       -36.10493
1.308                  0.9996199       -37.02783
1.312                  0.9963956       -37.89073
1.316                  0.9929584        -38.6806
1.32                   0.9898917       -39.39778
1.324                  0.9877338       -40.05688
1.328                  0.9868764       -40.68492
1.332                   0.987487       -41.31683
1.336                  0.9894704       -41.98906
1.34                   0.9924793       -42.73265
1.344                  0.9959732       -43.56741
1.348                  0.9993121       -44.49847
1.352                   1.001868       -45.51551
1.356                   1.003134       -46.59474
1.36                    1.002807       -47.70271
1.364                   1.000852       -48.80156
1.368                  0.9975089       -49.85497
1.372                  0.9932666       -50.83416
1.376                  0.9887924       -51.72332
1.38                   0.9848236       -52.52356
1.384                  0.9820395       -53.25419
1.388                  0.9809326       -53.95059
1.392                  0.9817081       -54.65849
1.396                  0.9842323       -55.42552
1.4                    0.9880472       -56.29216
1.404                  0.9924449        -57.2842
1.408                  0.9965902       -58.40826
1.412                  0.9996625       -59.65111
1.416                   1.000995       -60.98208
1.42                    1.000184       -62.35808
1.424                  0.9971703       -63.72989
1.428                  0.9922544       -65.04964
1.432                  0.9860741       -66.27836
1.436                  0.9795169       -67.39365
1.44                   0.9735853       -68.39566
1.444                  0.9692258        -69.3101
1.448                  0.9671478       -70.18653
1.452                  0.9676723         -71.091
1.456                  0.9706462       -72.09435
1.46                   0.9754477       -73.25873
1.464                  0.9810823       -74.62638
1.468                  0.9863469        -76.2128
1.472                  0.9900267       -78.00562
1.476                  0.9910871       -79.96773
1.48                   0.9888364        -82.0435
1.484                  0.9830409        -84.1666
1.488                  0.9739836       -86.26908
1.492                   0.962457       -88.29165
1.496                  0.9496816        -90.1952
1.5                    0.9371455       -91.97273
1.504                  0.9263654        -93.6595
1.508                  0.9185958       -95.33705
1.512                  0.9145379       -97.12765
1.516                  0.9141221       -99.17785
1.52                   0.9164317       -101.6355
1.524                  0.9197892       -104.6282
1.528                  0.9219778       -108.2504
1.532                  0.9205298       -112.5615
1.536                  0.9130177       -117.5939
1.54                   0.8973044       -123.3659
1.544                  0.8717399       -129.8968
1.548                  0.8353081       -137.2238
1.552                  0.7877447       -145.4213
1.556                  0.7296534       -154.6266
1.56                   0.6626629       -165.0784
1.564                  0.5896943       -177.1729
1.568                  0.5154515        168.4665
1.572                  0.4472217        150.9797
1.576                  0.3955958         129.618
1.58                   0.3728954        104.9207
1.584                   0.386258         79.7532
1.588                  0.4311663        57.40089
1.592                  0.4957184        38.97616
1.596                  0.5685525         23.9121
1.6                     0.641608        11.31775
1.604                  0.7096612       0.5031443
1.608                  0.7694556       -8.980271
1.612                  0.8191272       -17.40605
1.616                  0.8578845       -24.93443
1.62                   0.8858262        -31.6548
1.624                  0.9038123       -37.61408
1.628                  0.9133451       -42.83737
1.632                  0.9164277       -47.34486
1.636                  0.9153806         -51.167
1.64                     0.91261       -54.35766
1.644                  0.9103347       -57.00265
1.648                  0.9103079       -59.22011
1.652                  0.9135931       -61.15042
1.656                  0.9204518       -62.93717
1.66                   0.9303856       -64.70526
1.664                  0.9423153       -66.54367
1.668                   0.954845       -68.49775
1.672                  0.9665405        -70.5712
1.676                  0.9761679       -72.73453
1.68                   0.9828628       -74.93614
1.684                  0.9862243       -77.11345
1.688                  0.9863377       -79.20297
1.692                   0.983734       -81.14905
1.696                  0.9792963        -82.9114
1.7                    0.9741197       -84.47131
1.704                  0.9693417        -85.8352
1.708                  0.9659621       -87.03471
1.712                  0.9646826       -88.12206
1.716                  0.9658001         -89.161
1.72                   0.9691736       -90.21509
1.724                  0.9742767       -91.33639
1.728                  0.9803141       -92.55732
1.732                  0.9863775       -93.88735
1.736                  0.9916047       -95.31407
1.74                   0.9953134       -96.80781
1.744                  0.9970953       -98.32793
1.748                  0.9968622       -99.82973
1.752                  0.9948415       -101.2712
1.756                  0.9915308       -102.6191
1.76                   0.9876099       -103.8539
1.764                  0.9838302       -104.9727
1.768                  0.9808898       -105.9902
1.772                  0.9793189       -106.9362
1.776                  0.9793933       -107.8502
1.78                   0.9810955       -108.7742
1.784                  0.9841304       -109.7451
1.788                  0.9879888       -110.7886
1.792                  0.9920465       -111.9153
1.796                   0.995674       -113.1203
1.8                    0.9983407       -114.3855
1.804                  0.9996928       -115.6828
1.808                  0.9996021         -116.98
1.812                  0.9981751        -118.245
1.816                  0.9957287        -119.451
1.82                   0.9927341       -120.5808
1.824                   0.989738       -121.6288
1.828                  0.9872709       -122.6028
1.832                  0.9857592        -123.522
1.836                  0.9854558       -124.4138
1.84                   0.9864002       -125.3091
1.844                  0.9884193       -126.2364
1.848                  0.9911645       -127.2172
1.852                  0.9941786       -128.2623
1.856                  0.9969768       -129.3709
1.86                   0.9991278       -130.5316
1.864                    1.00032       -131.7243
1.868                   1.000409       -132.9246
1.872                  0.9994297        -134.107
1.876                  0.9975912       -135.2493
1.88                   0.9952349       -136.3358
1.884                  0.9927783       -137.3597
1.888                  0.9906458       -138.3244
1.892                   0.989198       -139.2428
1.896                  0.9886723       -140.1349
1.9                    0.9891454       -141.0245
1.904                   0.990524       -141.9348
1.908                  0.9925662       -142.8846
1.912                  0.9949269        -143.885
1.916                  0.9972191       -144.9379
1.92                   0.9990785       -146.0365
1.924                   1.000223       -147.1665
1.928                   1.000492       -148.3088
1.932                  0.9998731       -149.4427
1.936                  0.9984946        -150.549
1.94                   0.9966058       -151.6131
1.944                  0.9945333        -152.627
1.948                  0.9926284       -153.5911
1.952                  0.9912075       -154.5134
1.956                  0.9905011       -155.4087
1.96                   0.9906171        -156.296
1.964                  0.9915241       -157.1947
1.968                  0.9930607       -158.1219
1.972                  0.9949652        -159.089
1.976                  0.9969222       -160.1005
1.98                   0.9986158       -161.1532
1.984                  0.9997797       -162.2372
1.988                   1.000239       -163.3376
1.992                  0.9999365       -164.4373
1.996                  0.9989355       -165.5191
2                      0.9974122       -166.5689
2.004                  0.9956233       -167.5777
2.008                  0.9938652       -168.5428
2.012                  0.9924252       -169.4686
2.016                  0.9915353       -170.3657
2.02                   0.9913341       -171.2491
2.024                  0.9918457       -172.1356
2.028                  0.9929766       -173.0414
2.032                  0.9945338       -173.9785
2.036                  0.9962584       -174.9538
2.04                   0.9978684       -175.9676
2.044                  0.9991047       -177.0136
2.048                   0.999772       -178.0807
2.052                  0.9997677       -179.1542
2.056                  0.9990969        179.7813
2.06                   0.9978703        178.7399
2.064                   0.996286        177.7325
2.068                  0.9945981        176.7642
2.072                  0.9930763        175.8343
2.076                  0.9919623        174.9361
2.08                   0.9914308        174.0575
2.084                  0.9915614        173.1837
2.088                  0.9923253        172.2992
2.092                  0.9935912        171.3904
2.096                  0.9951466        170.4479
2.1                     0.996734        169.4681
2.104                  0.9980911        168.4533
2.108                  0.9989932        167.4116
2.112                  0.9992879        166.3551
2.116                  0.9989183        165.2988
2.12                   0.9979317        164.2571
2.124                  0.9964732        163.2429
2.128                  0.9947634        162.2647
2.132                  0.9930646        161.3253
2.136                  0.9916395        160.4216
2.14                   0.9907093        159.5447
2.144                  0.9904166        158.6809
2.148                  0.9908013        157.8145
2.152                   0.991793        156.9299
2.156                  0.9932211        156.0145
2.16                   0.9948419        155.0604
2.164                   0.996378        154.0661
2.168                  0.9975611        153.0363
2.172                  0.9981757        151.9813
2.176                  0.9980922        150.9156
2.18                   0.9972897        149.8552
2.184                  0.9958601        148.8158
2.188                  0.9939968        147.8098
2.192                  0.9919669        146.8446
2.196                  0.9900707         145.921
2.2                    0.9885935        145.0326
2.204                  0.9877591         144.167
2.208                  0.9876892        143.3071
2.212                  0.9883815        142.4341
2.216                  0.9897052        141.5306
2.22                   0.9914203        140.5834
2.224                  0.9932142         139.586
2.228                  0.9947514        138.5392
2.232                  0.9957271        137.4518
2.236                  0.9959164        136.3383
2.24                   0.9952122        135.2175
2.244                  0.9936462        134.1093
2.248                  0.9913887        133.0319
2.252                  0.9887273        131.9983
2.256                  0.9860257        131.0143
2.26                   0.9836675        130.0767
2.264                   0.981992        129.1734
2.268                  0.9812344        128.2845
2.272                  0.9814801        127.3856
2.276                  0.9826416        126.4515
2.28                   0.9844677        125.4608
2.284                  0.9865781        124.3994
2.288                  0.9885236        123.2629
2.292                  0.9898565        122.0575
2.296                  0.9902044         120.799
2.3                    0.9893314        119.5104
2.304                  0.9871819        118.2186
2.308                  0.9838981        116.9502
2.312                  0.9798076        115.7271
2.316                  0.9753815        114.5624
2.32                   0.9711645        113.4573
2.324                  0.9676858        112.3989
2.328                  0.9653642        111.3615
2.332                   0.964424        110.3091
2.336                  0.9648394        109.2015
2.34                   0.9663219        108.0005
2.344                  0.9683531        106.6765
2.348                  0.9702596        105.2135
2.352                  0.9713154         103.611