! TOUCHSTONE file generated by CST MICROWAVE STUDIO
! Date and time: Tue Jun 14 13:15:17 2022
! Project name: AppElm_antenne_patch_FR4.cst
! Parameters = {L=45; W=58.5; e=0.035; h=1.6; lambda=0.190476; ls=120; w0=2.54; w1=0.847; ws=120; y0=20.7; y1=23.8}
! Header version: 2018
! Port assignment regex: !\s*Touchstone port\s*([0-9]+)\s*=\s*(CST MWS port|CST DS port)\s*([0-9]+|Zmin|Zmax)\s*\(\"(.*)\"\)(\s*mode\s*([0-9]+))?.*
! Touchstone port assignment:
! Touchstone port 1 = CST MWS port 1 ("")
# GHz S MA R 50
0                       0.989553              -0
0.004                  0.9902152       -10.00544
0.008                  0.9921052       -19.91719
0.012                   0.994949       -29.64633
0.016                  0.9983391        -39.1127
0.02                    1.001798       -48.24755
0.024                   1.004852       -56.99474
0.028                   1.007096       -65.31093
0.032                   1.008252       -73.16486
0.036                   1.008204       -80.53679
0.04                    1.007008       -87.41781
0.044                   1.004882       -93.80973
0.048                    1.00217       -99.72503
0.052                  0.9992911       -105.1867
0.056                  0.9966769       -110.2279
0.06                   0.9947034       -114.8899
0.064                  0.9936369       -119.2204
0.068                   0.993593       -123.2691
0.072                  0.9945246       -127.0843
0.076                  0.9962345       -130.7086
0.08                   0.9984135       -134.1759
0.084                   1.000695       -137.5101
0.088                   1.002715       -140.7242
0.092                    1.00417       -143.8225
0.096                   1.004859        -146.802
0.1                     1.004713        -149.656
0.104                   1.003797       -152.3766
0.108                   1.002296       -154.9585
0.112                   1.000483       -157.4005
0.116                  0.9986704       -159.7076
0.12                   0.9971608       -161.8914
0.124                  0.9961949       -163.9692
0.128                  0.9959142       -165.9623
0.132                  0.9963403       -167.8929
0.136                  0.9973747       -169.7818
0.14                   0.9988201       -171.6452
0.144                   1.000418       -173.4931
0.148                   1.001892       -175.3287
0.152                   1.002999       -177.1485
0.156                   1.003564       -178.9443
0.16                     1.00351        179.2955
0.164                   1.002865        177.5827
0.168                   1.001755        175.9277
0.172                   1.000382        174.3368
0.176                  0.9989894         172.811
0.18                   0.9978156        171.3458
0.184                  0.9970574        169.9315
0.188                  0.9968356        168.5547
0.192                   0.997175        167.2003
0.196                  0.9980029        165.8541
0.2                    0.9991635        164.5052
0.204                   1.000448        163.1473
0.208                   1.001629        161.7794
0.212                   1.002507        160.4059
0.216                   1.002934        159.0354
0.22                    1.002846        157.6788
0.224                   1.002266        156.3476
0.228                   1.001302        155.0515
0.232                   1.000129        153.7969
0.236                  0.9989512        152.5858
0.24                   0.9979747        151.4148
0.244                  0.9973662        150.2763
0.248                  0.9972266        149.1593
0.252                   0.997573        148.0516
0.256                  0.9983373        146.9415
0.26                   0.9993799        145.8202
0.264                   1.000514         144.683
0.268                    1.00154        143.5299
0.272                   1.002281        142.3656
0.276                   1.002611        141.1984
0.28                    1.002477        140.0386
0.284                   1.001907        138.8969
0.288                   1.001006        137.7823
0.292                  0.9999317        136.7007
0.296                  0.9988752        135.6535
0.3                    0.9980212        134.6379
0.304                   0.997518        133.6467
0.308                  0.9974517        132.6698
0.312                  0.9978303        131.6962
0.316                  0.9985841        130.7157
0.32                   0.9995774        129.7204
0.324                   1.000634        128.7066
0.328                   1.001569         127.675
0.332                    1.00222        126.6306
0.336                   1.002475        125.5815
0.34                    1.002291        124.5379
0.344                   1.001704        123.5097
0.348                   1.000818        122.5054
0.352                  0.9997893        121.5304
0.356                  0.9987992        120.5856
0.36                   0.9980213         119.668
0.364                  0.9975924        118.7705
0.368                  0.9975867        117.8834
0.372                  0.9980035        116.9961
0.376                  0.9987682         116.099
0.38                   0.9997444        115.1852
0.384                   1.000759        114.2516
0.388                   1.001635        113.2994
0.392                   1.002218        112.3339
0.396                   1.002407        111.3634
0.4                      1.00217        110.3979
0.404                   1.001547        109.4471
0.408                    1.00065        108.5191
0.412                  0.9996342        107.6186
0.416                  0.9986787        106.7463
0.42                   0.9979517        105.8987
0.424                  0.9975807        105.0684
0.428                  0.9976313        104.2458
0.432                  0.9980939        103.4206
0.436                  0.9988864        102.5834
0.44                   0.9998683        101.7279
0.444                   1.000867        100.8516
0.448                   1.001705        99.95609
0.452                   1.002237        99.04718
0.456                   1.002369        98.13346
0.46                    1.002076        97.22494
0.464                    1.00141        96.33128
0.468                   1.000486         95.4602
0.472                  0.9994672        94.61603
0.476                  0.9985311        93.79896
0.48                   0.9978436        93.00495
0.484                  0.9975266        92.22636
0.488                  0.9976368        91.45326
0.492                  0.9981556        90.67528
0.496                  0.9989918        89.88339
0.5                    0.9999981        89.07158
0.504                   1.000998         88.2378
0.508                   1.001814        87.38441
0.512                   1.002304        86.51758
0.516                    1.00238        85.64632
0.52                    1.002029        84.78085
0.524                   1.001309         83.9309
0.528                   1.000346         83.1039
0.532                  0.9993086        82.30387
0.536                  0.9983792        81.53045
0.54                   0.9977224        80.77899
0.544                  0.9974555        80.04133
0.548                  0.9976272        79.30722
0.552                  0.9982086        78.56608
0.556                  0.9990981        77.80901
0.56                    1.000139        77.03029
0.564                   1.001149        76.22844
0.568                   1.001948         75.4064
0.572                   1.002396        74.57098
0.576                   1.002413        73.73171
0.58                    1.001991        72.89916
0.584                   1.001204        72.08312
0.588                   1.000187        71.29093
0.592                  0.9991179        70.52617
0.596                  0.9981842         69.7879
0.6                    0.9975517        69.07084
0.604                  0.9973339        68.36616
0.608                  0.9975712        67.66307
0.612                  0.9982236        66.95075
0.616                  0.9991769         66.2203
0.62                    1.000264        65.46634
0.624                   1.001292        64.68789
0.628                   1.002079        63.88861
0.632                   1.002486        63.07601
0.636                   1.002438         62.2603
0.64                     1.00194        61.45245
0.644                   1.001076        60.66244
0.648                  0.9999949        59.89754
0.652                  0.9988858        59.16085
0.656                  0.9979439        58.45083
0.66                    0.997337        57.76136
0.664                  0.9971749        57.08285
0.668                  0.9974888         56.4039
0.672                  0.9982262        55.71329
0.676                  0.9992582        55.00211
0.68                    1.000404        54.26527
0.684                   1.001461        53.50242
0.688                   1.002242        52.71797
0.692                   1.002608        51.92032
0.696                   1.002491        51.12038
0.7                     1.001907        50.32972
0.704                   1.000955        49.55856
0.708                  0.9997995        48.81403
0.712                  0.9986419        48.09884
0.716                  0.9976873        47.41067
0.72                   0.9971063        46.74252
0.724                  0.9970048        46.08389
0.728                  0.9974047         45.4226
0.732                  0.9982381        44.74701
0.736                  0.9993601        44.04811
0.74                    1.000574        43.32115
0.744                   1.001665        42.56647
0.748                   1.002439        41.78938
0.752                   1.002757        40.99924
0.756                   1.002559        40.20785
0.76                    1.001873        39.42743
0.764                   1.000816        38.66855
0.768                  0.9995699        37.93823
0.772                  0.9983514        37.23866
0.776                  0.9973766        36.56671
0.78                   0.9968199        35.91435
0.784                  0.9967841        35.26998
0.788                  0.9972793        34.62055
0.792                  0.9982214        33.95386
0.796                  0.9994464         33.2608
0.8                     1.000739        32.53699
0.804                   1.001869        31.78353
0.808                   1.002637        31.00673
0.812                   1.002902         30.2171
0.816                   1.002613        29.42746
0.82                    1.001812        28.65081
0.824                   1.000636        27.89808
0.828                  0.9992855        27.17623
0.832                  0.9979976        26.48688
0.836                  0.9970006        25.82592
0.84                   0.9964741        25.18414
0.844                  0.9965163        24.54868
0.848                  0.9971251        23.90545
0.852                  0.9981971        23.24159
0.856                  0.9995461        22.54786
0.86                    1.000935        21.82028
0.864                   1.002118        21.06079
0.868                   1.002885        20.27692
0.872                   1.003094        19.48044
0.876                   1.002704        18.68539
0.88                    1.001773        17.90567
0.884                   1.000461        17.15268
0.888                  0.9989912        16.43331
0.892                  0.9976229        15.74856
0.896                  0.9965991        15.09324
0.9                     0.996106        14.45669
0.904                  0.9962372        13.82466
0.908                  0.9969764         13.1818
0.912                  0.9981982        12.51448
0.916                  0.9996905        11.81329
0.92                    1.001191        11.07468
0.924                   1.002435        10.30159
0.928                   1.003199        9.502905
0.932                   1.003342        8.691903
0.936                   1.002831        7.884029
0.94                    1.001745        7.094286
0.944                   1.000267        6.334667
0.948                  0.9986509        5.612002
0.952                  0.9971801        4.926606
0.956                  0.9961162         4.27202
0.96                   0.9956534        3.635973
0.964                  0.9958814        3.002491
0.968                  0.9967672         2.35476
0.972                  0.9981605        1.678207
0.976                  0.9998189       0.9631508
0.98                    1.001451       0.2065325
0.984                   1.002767      -0.5875837
0.988                    1.00353       -1.408746
0.992                   1.003597       -2.241907
0.996                   1.002945       -3.069944
1                       1.001676       -3.876532
1.004                   1.000003       -4.648936
1.008                  0.9982121       -5.380317
1.012                  0.9966175       -6.071133
1.016                  0.9955042       -6.729308
1.02                   0.9950765       -7.369042
1.024                    0.99542       -8.008365
1.028                  0.9964836       -8.665886
1.032                  0.9980871       -9.357372
1.036                  0.9999523       -10.09288
1.04                    1.001752       -10.87496
1.044                   1.003167       -11.69825
1.048                   1.003942       -12.55047
1.052                    1.00393       -13.41445
1.056                    1.00312       -14.27107
1.06                    1.001638       -15.10227
1.064                  0.9997326       -15.89441
1.068                  0.9977304       -16.64051
1.072                  0.9959828       -17.34187
1.076                  0.9948038       -18.00811
1.08                   0.9944123       -18.65572
1.084                  0.9948905        -19.3053
1.088                  0.9961665       -19.97766
1.092                  0.9980249       -20.69005
1.096                   1.000144       -21.45318
1.1                     1.002153         -22.269
1.104                   1.003695        -23.1307
1.108                    1.00449       -24.02373
1.112                   1.004385       -24.92846
1.116                   1.003379        -25.8231
1.12                    1.001631       -26.68753
1.124                  0.9994278       -27.50674
1.128                   0.997148       -28.27345
1.132                  0.9951905       -28.98983
1.136                  0.9939075       -29.66752
1.14                   0.9935388       -30.32587
1.144                  0.9941656       -30.98857
1.148                  0.9956926       -31.67938
1.152                  0.9978624       -32.41766
1.156                   1.000299       -33.21488
1.16                    1.002576       -34.07257
1.164                   1.004287       -34.98217
1.168                   1.005119       -35.92649
1.172                   1.004908       -36.88257
1.176                   1.003663       -37.82546
1.18                    1.001578       -38.73218
1.184                  0.9989931       -39.58576
1.188                  0.9963495       -40.37831
1.192                  0.9941096       -41.11292
1.196                  0.9926777       -41.80366
1.2                    0.9923253       -42.47347
1.204                  0.9931363       -43.15023
1.208                  0.9949886        -43.8616
1.212                  0.9975721       -44.62987
1.216                   1.000442        -45.4679
1.22                    1.003095       -46.37681
1.224                   1.005061       -47.34598
1.228                   1.005978       -48.35485
1.232                   1.005659       -49.37629
1.236                   1.004125       -50.38095
1.24                    1.001609       -51.34193
1.244                  0.9985201       -52.23934
1.248                  0.9953822       -53.06411
1.252                  0.9927448       -53.82017
1.256                  0.9910881       -54.52459
1.26                   0.9907312       -55.20506
1.264                  0.9917693       -55.89518
1.268                  0.9940496       -56.62813
1.272                  0.9971937       -57.43055
1.276                   1.000663       -58.31753
1.28                    1.003851       -59.29001
1.284                    1.00619       -60.33488
1.288                   1.007246       -61.42712
1.292                   1.006794       -62.53392
1.296                   1.004861       -63.61972
1.3                     1.001729       -64.65176
1.304                  0.9978987       -65.60564
1.308                    0.99401       -66.46993
1.312                  0.9907413       -67.24912
1.316                  0.9886881       -67.96408
1.32                   0.9882504       -68.64915
1.324                  0.9895507       -69.34628
1.328                   0.992402       -70.09718
1.332                  0.9963336       -70.93535
1.336                   1.000672        -71.8798
1.34                    1.004657        -72.9319
1.344                   1.007571       -74.07532
1.348                   1.008861       -75.27897
1.352                   1.008234       -76.50171
1.356                   1.005712       -77.69864
1.36                    1.001637       -78.82777
1.364                  0.9966383       -79.85693
1.368                  0.9915349       -80.76997
1.372                  0.9872091       -81.57116
1.376                  0.9844509       -82.28643
1.38                   0.9838069       -82.96028
1.384                  0.9854641       -83.64833
1.388                   0.989199       -84.40669
1.392                  0.9944052       -85.28112
1.396                   1.000195       -86.29829
1.4                     1.005553       -87.46135
1.404                   1.009505       -88.74993
1.408                   1.011282       -90.12375
1.412                   1.010448       -91.52862
1.416                   1.006984       -92.90405
1.42                    1.001307       -94.19169
1.424                  0.9942416       -95.34448
1.428                  0.9869061       -96.33562
1.432                  0.9805517       -97.16623
1.436                  0.9763455       -97.86905
1.44                   0.9751445       -98.50617
1.444                  0.9773054       -99.15917
1.448                  0.9825826       -99.91344
1.452                  0.9901457        -100.841
1.456                  0.9987125       -101.9866
1.46                    1.006766       -103.3602
1.464                     1.0128       -104.9372
1.468                   1.015563       -106.6628
1.472                    1.01425       -108.4598
1.476                   1.008647       -110.2384
1.48                   0.9992073       -111.9057
1.484                  0.9870544       -113.3789
1.488                   0.973886       -114.5992
1.492                  0.9617738       -115.5492
1.496                  0.9528438       -116.2668
1.5                     0.948866       -116.8514
1.504                  0.9508349       -117.4537
1.508                  0.9586603       -118.2489
1.512                  0.9710735       -119.3999
1.516                   0.985782       -121.0263
1.52                   0.9998004        -123.188
1.524                   1.009851       -125.8857
1.528                   1.012734       -129.0706
1.532                   1.005622       -132.6572
1.536                  0.9862729       -136.5314
1.54                    0.953176        -140.553
1.544                  0.9056624       -144.5494
1.548                  0.8440023       -148.2988
1.552                  0.7695355       -151.4971
1.556                  0.6849033        -153.698
1.56                   0.5945242       -154.2125
1.564                  0.5055621       -151.9779
1.568                  0.4295815       -145.5862
1.572                  0.3834422       -134.2761
1.576                  0.3829767       -120.4201
1.58                   0.4284176       -109.0202
1.584                  0.5041403       -102.5344
1.588                  0.5932063       -100.2396
1.592                  0.6839308       -100.7255
1.596                  0.7690604       -102.9205
1.6                    0.8441106       -106.1292
1.604                   0.906385       -109.9013
1.608                  0.9544953       -113.9305
1.612                  0.9881255       -117.9936
1.616                   1.007904        -121.917
1.62                    1.015306       -125.5592
1.624                   1.012547       -128.8048
1.628                   1.002444       -131.5661
1.632                  0.9882005       -133.7916
1.636                  0.9731223       -135.4784
1.64                   0.9602457       -136.6833
1.644                  0.9519324       -137.5236
1.648                   0.949526       -138.1621
1.652                  0.9531825       -138.7762
1.656                  0.9619481       -139.5208
1.66                   0.9740617       -140.4995
1.664                  0.9873774       -141.7545
1.668                  0.9997814       -143.2706
1.672                   1.009522       -144.9905
1.676                   1.015421       -146.8312
1.68                    1.016973       -148.6992
1.684                   1.014348       -150.5026
1.688                   1.008325       -152.1621
1.692                   1.000147       -153.6202
1.696                  0.9913337        -154.849
1.7                    0.9834342       -155.8557
1.704                  0.9777813        -156.683
1.708                  0.9752641       -157.4025
1.712                  0.9761844       -158.1007
1.716                  0.9802271       -158.8615
1.72                   0.9865548       -159.7506
1.724                  0.9939953       -160.8041
1.728                   1.001272       -162.0256
1.732                   1.007221       -163.3901
1.736                   1.010972       -164.8512
1.74                    1.012053       -166.3501
1.744                   1.010442       -167.8248
1.748                   1.006543       -169.2191
1.752                   1.001109         -170.49
1.756                  0.9951189       -171.6142
1.76                   0.9896156        -172.592
1.764                  0.9855293       -173.4481
1.768                  0.9835197       -174.2271
1.772                  0.9838645       -174.9859
1.776                  0.9864218        -175.782
1.78                   0.9906716       -176.6627
1.784                   0.995829       -177.6572
1.788                   1.000995       -178.7725
1.792                   1.005315       -179.9945
1.796                   1.008117        178.7078
1.8                     1.009007        177.3764
1.804                   1.007918        176.0573
1.808                   1.005106        174.7933
1.812                   1.001104         173.618
1.816                  0.9966264        172.5507
1.82                   0.9924505        171.5927
1.824                  0.9892859        170.7273
1.828                  0.9876509        169.9222
1.832                  0.9877839        169.1358
1.836                  0.9896093        168.3246
1.84                   0.9927594         167.452
1.844                  0.9966529        166.4942
1.848                   1.000605         165.444
1.852                   1.003949        164.3104
1.856                   1.006147        163.1165
1.86                    1.006871        161.8945
1.864                    1.00605        160.6804
1.868                   1.003867        159.5082
1.872                    1.00073        158.4052
1.876                  0.9971939        157.3871
1.88                   0.9938735        156.4555
1.884                   0.991332        155.5977
1.888                  0.9899867        154.7888
1.892                  0.9900367        153.9962
1.896                  0.9914328        153.1856
1.9                    0.9938932        152.3276
1.904                  0.9969607        151.4029
1.908                   1.000091        150.4049
1.912                   1.002747        149.3403
1.916                   1.004494        148.2272
1.92                    1.005061        147.0914
1.924                   1.004385         145.962
1.928                   1.002612        144.8667
1.932                    1.00007        143.8276
1.936                  0.9972077        142.8573
1.94                   0.9945222        141.9572
1.944                  0.9924681        141.1168
1.948                  0.9913818        140.3159
1.952                  0.9914223        139.5281
1.956                  0.9925483        138.7259
1.96                   0.9945299        137.8855
1.964                  0.9969956        136.9914
1.968                  0.9995033        136.0382
1.972                   1.001618        135.0316
1.976                   1.002988        133.9864
1.98                    1.003396        132.9237
1.984                   1.002798        131.8673
1.988                   1.001319        130.8398
1.992                   0.999232        129.8588
1.996                  0.9969055         128.934
2                      0.9947427        128.0659
2.004                   0.993108        127.2455
2.008                  0.9922659         126.456
2.012                   0.992334        125.6758
2.016                  0.9932678        124.8827
2.02                   0.9948718        124.0581
2.024                  0.9968404        123.1899
2.028                  0.9988143        122.2745
2.032                   1.000447         121.317
2.036                   1.001462        120.3298
2.04                    1.001698        119.3304
2.044                   1.001133         118.338
2.048                  0.9998833        117.3704
2.052                  0.9981775         116.441
2.056                  0.9963174        115.5568
2.06                    0.994623         114.717
2.064                  0.9933748        113.9133
2.068                   0.992767        113.1319
2.072                  0.9928737        112.3554
2.076                  0.9936402        111.5666
2.08                   0.9948966        110.7516
2.084                  0.9963941        109.9018
2.088                  0.9978504        109.0157
2.092                  0.9990027        108.0983
2.096                  0.9996519        107.1601
2.1                    0.9996948        106.2151
2.104                  0.9991376         105.278
2.108                  0.9980912         104.362
2.112                  0.9967464        103.4761
2.116                  0.9953394         102.624
2.12                   0.9941065        101.8036
2.124                  0.9932421        101.0074
2.128                  0.9928658        100.2239
2.132                  0.9930027        99.44021
2.136                  0.9935837        98.64425
2.14                   0.9944625        97.82699
2.144                  0.9954464        96.98398
2.148                  0.9963343        96.11583
2.152                  0.9969542        95.22778
2.156                   0.997192         94.3285
2.16                   0.9970103        93.42819
2.164                  0.9964497        92.53671
2.168                  0.9956175        91.66172
2.172                  0.9946638         90.8074
2.176                  0.9937503        89.97378
2.18                   0.9930182        89.15695
2.184                  0.9925628        88.35006
2.188                  0.9924168        87.54478
2.192                  0.9925473        86.73311
2.196                  0.9928676        85.90884
2.2                    0.9932579         85.0689
2.204                  0.9935925        84.21356
2.208                  0.9937675        83.34624
2.212                  0.9937207        82.47251
2.216                   0.993444        81.59863
2.22                   0.9929812        80.73021
2.224                  0.9924163        79.87081
2.228                  0.9918518        79.02115
2.232                  0.9913834        78.17898
2.236                  0.9910764        77.33958
2.24                   0.9909488        76.49687
2.244                  0.9909657          75.645
2.248                  0.9910464        74.77962
2.252                  0.9910829        73.89919
2.256                  0.9909651        73.00543
2.26                   0.9906098          72.103
2.264                  0.9899828        71.19864
2.268                  0.9891129        70.29951
2.272                  0.9880917        69.41155
2.276                  0.9870586        68.53762
2.28                   0.9861731        67.67647
2.284                  0.9855796        66.82229
2.288                   0.985371        65.96535
2.292                  0.9855603        65.09364
2.296                  0.9860664        64.19521
2.3                    0.9867194         63.2607
2.304                  0.9872864        62.28557
2.308                  0.9875128        61.27146
2.312                  0.9871713        60.22652
2.316                   0.986113        59.16428
2.32                   0.9843056        58.10148
2.324                  0.9818542        57.05502
2.328                   0.978998        56.03838
2.332                  0.9760778         55.0582
2.336                  0.9734808        54.11167
2.34                   0.9715657        53.18534
2.344                  0.9705847         52.2561
2.348                   0.970616        51.29433
2.352                  0.9715239        50.26881