! TOUCHSTONE file generated by CST MICROWAVE STUDIO
! Date and time: Tue Jun 14 13:15:13 2022
! Project name: AppElm_antenne_patch_FR4.cst
! Parameters = {L=45; W=58.5; e=0.035; h=1.6; lambda=0.190476; ls=120; w0=2.54; w1=0.847; ws=120; y0=17.1; y1=23.8}
! Header version: 2018
! Port assignment regex: !\s*Touchstone port\s*([0-9]+)\s*=\s*(CST MWS port|CST DS port)\s*([0-9]+|Zmin|Zmax)\s*\(\"(.*)\"\)(\s*mode\s*([0-9]+))?.*
! Touchstone port assignment:
! Touchstone port 1 = CST MWS port 1 ("")
# GHz S MA R 50
0                      0.9864394              -0
0.004                  0.9872172         -9.9627
0.008                  0.9894467       -19.83298
0.012                  0.9928319       -29.52326
0.016                  0.9969296       -38.95476
0.02                    1.001213        -48.0601
0.024                   1.005146       -56.78439
0.028                   1.008254       -65.08498
0.032                   1.010181       -72.93075
0.036                   1.010735       -80.30099
0.04                    1.009902        -87.1847
0.044                   1.007848       -93.58023
0.048                   1.004893       -99.49542
0.052                   1.001466       -104.9479
0.056                  0.9980452       -109.9652
0.06                   0.9950952       -114.5842
0.064                  0.9929997       -118.8497
0.068                  0.9920085       -122.8115
0.072                  0.9922047       -126.5208
0.076                  0.9934971       -130.0262
0.08                   0.9956405       -133.3695
0.084                  0.9982786       -136.5832
0.088                   1.001002       -139.6888
0.092                   1.003408       -142.6969
0.096                   1.005164       -145.6085
0.1                     1.006045        -148.418
0.104                   1.005964       -151.1154
0.108                   1.004981       -153.6896
0.112                   1.003283       -156.1319
0.116                   1.001161       -158.4381
0.12                   0.9989569       -160.6103
0.124                  0.9970141       -162.6579
0.128                  0.9956259       -164.5967
0.132                  0.9949888       -166.4481
0.136                  0.9951752       -168.2355
0.14                   0.9961253       -169.9819
0.144                  0.9976604       -171.7068
0.148                  0.9995159       -173.4237
0.152                   1.001386       -175.1388
0.156                   1.002975       -176.8512
0.16                    1.004039       -178.5533
0.164                   1.004427        179.7666
0.168                   1.004097        178.1226
0.172                   1.003123        176.5282
0.176                   1.001678        174.9942
0.18                    1.000006        173.5268
0.184                  0.9983839        172.1259
0.188                  0.9970734        170.7855
0.192                  0.9962809        169.4939
0.196                  0.9961243        168.2359
0.2                    0.9966141        166.9948
0.204                  0.9976544        165.7553
0.208                  0.9990605        164.5056
0.212                   1.000592        163.2394
0.216                   1.001995        161.9563
0.22                    1.003039        160.6618
0.224                   1.003561        159.3658
0.228                   1.003483        158.0809
0.232                    1.00283        156.8203
0.236                   1.001717        155.5955
0.24                    1.000336        154.4144
0.244                  0.9989192        153.2801
0.248                  0.9977044        152.1897
0.252                  0.9968914        151.1354
0.256                  0.9966112        150.1055
0.26                   0.9969034        149.0859
0.264                  0.9977106        148.0632
0.268                  0.9988895        147.0263
0.272                   1.000236        145.9687
0.276                   1.001522         144.889
0.28                    1.002531        143.7913
0.284                   1.003097        142.6839
0.288                   1.003131        141.5785
0.292                   1.002631        140.4874
0.296                   1.001687         139.422
0.3                     1.000462        138.3908
0.304                  0.9991657        137.3976
0.308                   0.998018        136.4413
0.312                  0.9972139        135.5158
0.316                  0.9968882        134.6107
0.32                   0.9970926        133.7135
0.324                  0.9977883        132.8116
0.328                  0.9988523        131.8944
0.332                     1.0001        130.9552
0.336                   1.001316        129.9922
0.34                    1.002293        129.0086
0.344                   1.002867        128.0123
0.348                   1.002943        127.0139
0.352                   1.002509        126.0255
0.356                   1.001642        125.0583
0.36                    1.000493        124.1207
0.364                  0.9992586        123.2172
0.368                  0.9981522        122.3471
0.372                  0.9973637        121.5049
0.376                  0.9970291        120.6811
0.38                   0.9972046        119.8638
0.384                   0.997858        119.0407
0.388                  0.9988747        118.2015
0.392                   1.000078        117.3396
0.396                   1.001258        116.4528
0.4                     1.002213        115.5444
0.404                   1.002778        114.6217
0.408                   1.002858        113.6953
0.412                   1.002439         112.777
0.416                   1.001596        111.8779
0.42                    1.000473        111.0065
0.424                  0.9992649        110.1673
0.428                  0.9981823        109.3597
0.432                  0.9974135        108.5784
0.436                  0.9970928         107.814
0.44                   0.9972759        107.0547
0.444                  0.9979307        106.2885
0.448                  0.9989424         105.505
0.452                   1.000134        104.6978
0.456                   1.001298        103.8651
0.46                    1.002231        103.0099
0.464                   1.002771        102.1398
0.468                   1.002825        101.2656
0.472                   1.002381         100.399
0.476                   1.001517        99.55119
0.48                    1.000381         98.7306
0.484                  0.9991707        97.94151
0.488                   0.998097        97.18325
0.492                  0.9973479        96.45015
0.496                  0.9970557        95.73265
0.5                    0.9972717        95.01876
0.504                  0.9979586        94.29636
0.508                  0.9989956        93.55527
0.512                     1.0002        92.78915
0.516                   1.001361        91.99648
0.52                    1.002274        91.18088
0.524                   1.002779        90.35027
0.528                   1.002787         89.5157
0.532                   1.002293        88.68928
0.536                   1.001382        87.88214
0.54                    1.000212        87.10265
0.544                  0.9989871        86.35473
0.548                  0.9979215        85.63722
0.552                  0.9972038        84.94401
0.556                  0.9969623        84.26487
0.56                   0.9972413         83.5875
0.564                  0.9979927        82.89954
0.568                  0.9990852        82.19091
0.572                   1.000326        81.45556
0.576                   1.001498        80.69255
0.58                    1.002394        79.90609
0.584                   1.002854        79.10483
0.588                   1.002798        78.30037
0.592                   1.002231         77.5052
0.596                   1.001251        76.73057
0.6                     1.000028        75.98463
0.604                  0.9987756        75.27089
0.608                  0.9977147        74.58748
0.612                  0.9970346        73.92742
0.616                  0.9968577        73.27983
0.62                    0.997218        72.63175
0.624                  0.9980532         71.9706
0.628                   0.999217        71.28637
0.632                   1.000504        70.57348
0.636                   1.001686         69.8317
0.64                    1.002554        69.06612
0.644                   1.002952         68.2863
0.648                   1.002808        67.50459
0.652                   1.002142        66.73392
0.656                   1.001068         65.9857
0.66                   0.9997731        65.26782
0.664                  0.9984832        64.58308
0.668                  0.9974274        63.92872
0.672                  0.9967947        63.29677
0.676                  0.9967002         62.6753
0.68                    0.997164        62.05069
0.684                   0.998106        61.41001
0.688                  0.9993607        60.74338
0.692                   1.000706        60.04581
0.696                   1.001904          59.318
0.7                      1.00274        58.56615
0.704                   1.003065        57.80092
0.708                   1.002816        57.03549
0.712                   1.002034         56.2834
0.716                   1.000852        55.55616
0.72                   0.9994753        54.86125
0.724                  0.9981467         54.2007
0.728                  0.9971033        53.57059
0.732                  0.9965332        52.96166
0.736                  0.9965417        52.36089
0.74                   0.9971313        51.75379
0.744                  0.9982001        51.12709
0.748                  0.9995599        50.47118
0.752                    1.00097        49.78183
0.756                   1.002178        49.06083
0.76                    1.002969        48.31574
0.764                   1.003198        47.55849
0.768                   1.002819        46.80332
0.772                   1.001893        46.06436
0.776                   1.000578        45.35321
0.78                   0.9991021        44.67684
0.784                  0.9977264        44.03628
0.788                  0.9966963        43.42625
0.792                  0.9961982        42.83601
0.796                  0.9963252        42.25118
0.8                    0.9970587        41.65635
0.804                  0.9982708        41.03794
0.808                   0.999747        40.38667
0.812                   1.001225         39.6992
0.816                    1.00244        38.97871
0.82                    1.003172        38.23429
0.824                   1.003287        37.47932
0.828                   1.002757        36.72919
0.832                   1.001668        35.99871
0.836                   1.000207        35.29945
0.84                    0.998628        34.63778
0.844                  0.9972111        34.01346
0.848                  0.9962106        33.41963
0.852                  0.9958102        32.84377
0.856                  0.9960869        32.27001
0.86                   0.9969968        31.68192
0.864                  0.9983816        31.06561
0.868                  0.9999967        30.41225
0.872                   1.001555        29.71965
0.876                   1.002777        28.99258
0.88                    1.003442        28.24192
0.884                   1.003426        27.48272
0.888                   1.002722        26.73167
0.892                   1.001448        26.00424
0.896                  0.9998218        25.31202
0.9                    0.9981277        24.66053
0.904                  0.9966674        24.04811
0.908                  0.9957045          23.466
0.912                  0.9954172        22.89972
0.916                  0.9958637        22.33168
0.92                   0.9969703        21.74438
0.924                  0.9985435        21.12365
0.928                   1.000305        20.46128
0.932                   1.001939        19.75644
0.936                   1.003153        19.01577
0.94                    1.003725        18.25217
0.944                   1.003543        17.48261
0.948                   1.002629         16.7252
0.952                   1.001134        15.99617
0.956                  0.9993138        15.30697
0.96                   0.9974872        14.66216
0.964                  0.9959795        14.05835
0.968                  0.9950644        13.48457
0.972                  0.9949128        12.92405
0.976                    0.99556        12.35724
0.98                   0.9968973        11.76543
0.984                  0.9986907         11.1342
0.988                   1.000622        10.45609
0.992                   1.002347        9.731876
0.996                   1.003554        8.970349
1                       1.004021        8.186764
1.004                   1.003653        7.400226
1.008                   1.002504        6.630477
1.012                   1.000764        5.894539
1.016                  0.9987318        5.203708
1.02                   0.9967654        4.561369
1.024                  0.9952167        3.962101
1.028                  0.9943698        3.392347
1.032                  0.9943862        2.832692
1.036                  0.9952739        2.261363
1.04                   0.9968827        1.658294
1.044                  0.9989312        1.008861
1.048                   1.001056       0.3065388
1.052                   1.002877      -0.4459915
1.056                   1.004064       -1.237398
1.06                    1.004396       -2.049689
1.064                   1.003798        -2.86125
1.068                   1.002359       -3.650452
1.072                   1.000317       -4.399315
1.076                  0.9980218        -5.09673
1.08                   0.9958769        -5.74068
1.084                  0.9942664       -6.338979
1.088                  0.9934866       -6.908235
1.092                  0.9936884       -7.470987
1.096                  0.9948473       -8.051609
1.1                    0.9967653       -8.671817
1.104                  0.9991049       -9.346503
1.108                    1.00145       -10.08102
1.112                   1.003378       -10.87054
1.116                   1.004537       -11.70076
1.12                    1.004706       -12.55038
1.124                   1.003834       -13.39497
1.128                   1.002052        -14.2105
1.132                  0.9996541       -14.97791
1.136                  0.9970522       -15.68628
1.14                   0.9947035       -16.33522
1.144                  0.9930317       -16.93541
1.148                  0.9923481       -17.50715
1.152                  0.9927914       -18.07685
1.156                  0.9942984       -18.67214
1.16                   0.9966122       -19.31668
1.164                  0.9993272       -20.02572
1.168                   1.001962        -20.8034
1.172                   1.004042       -21.64215
1.176                   1.005187       -22.52408
1.18                    1.005173       -23.42408
1.184                   1.003975       -24.31391
1.188                   1.001776       -25.16679
1.192                  0.9989377         -25.962
1.196                  0.9959468        -26.6887
1.2                    0.9933297       -27.34833
1.204                  0.9915609       -27.95504
1.208                  0.9909734       -28.53369
1.212                  0.9916934       -29.11551
1.216                  0.9936115       -29.73224
1.22                   0.9963993       -30.41017
1.224                  0.9995664       -31.16515
1.228                   1.002548       -31.99985
1.232                   1.004804       -32.90346
1.236                   1.005913       -33.85368
1.24                    1.005646       -34.82043
1.244                   1.004009       -35.77075
1.248                   1.001245         -36.674
1.252                  0.9978043       -37.50713
1.256                  0.9942703       -38.25904
1.26                   0.9912628       -38.93331
1.264                  0.9893275       -39.54846
1.268                  0.9888323       -40.13533
1.272                  0.9898933       -40.73166
1.276                  0.9923451       -41.37499
1.28                   0.9957677       -42.09542
1.284                  0.9995584       -42.90999
1.288                    1.00304       -43.81984
1.292                   1.005578       -44.81016
1.296                    1.00669       -45.85301
1.3                     1.006133       -46.91177
1.304                   1.003942       -47.94695
1.308                    1.00044       -48.92236
1.312                  0.9961873       -49.81131
1.316                  0.9919024       -50.60173
1.32                   0.9883373       -51.29959
1.324                  0.9861444       -51.92909
1.328                  0.9857503       -52.52938
1.332                  0.9872665       -53.14756
1.336                  0.9904579       -53.82975
1.34                   0.9947783       -54.61208
1.344                  0.9994666       -55.51395
1.348                   1.003681       -56.53484
1.352                   1.006642       -57.65484
1.356                   1.007769       -58.83822
1.36                    1.006777       -60.03905
1.364                   1.003733       -61.20806
1.368                  0.9990562       -62.30024
1.372                  0.9934697       -63.28227
1.376                  0.9878904       -64.13928
1.38                   0.9832807       -64.87946
1.384                  0.9804759       -65.53477
1.388                  0.9800185       -66.15692
1.392                  0.9820399       -66.80816
1.396                  0.9862186       -67.54923
1.4                    0.9918266        -68.4273
1.404                  0.9978574       -69.46723
1.408                   1.003201       -70.66766
1.412                   1.006831       -72.00203
1.416                    1.00798       -73.42348
1.42                    1.006262       -74.87167
1.424                   1.001755       -76.28142
1.428                  0.9950067        -77.5919
1.432                  0.9869826        -78.7566
1.436                  0.9789344       -79.75296
1.44                   0.9722052       -80.59009
1.444                  0.9679915        -81.3118
1.448                  0.9670986       -81.99225
1.452                   0.969755        -82.7233
1.456                   0.975532       -83.59655
1.46                   0.9833993       -84.68468
1.464                  0.9918996       -86.02814
1.468                  0.9993971       -87.62959
1.472                   1.004343       -89.45573
1.476                   1.005519       -91.44396
1.48                    1.002224       -93.51117
1.484                  0.9944041       -95.56396
1.488                  0.9827014       -97.50981
1.492                  0.9684294       -99.27053
1.496                  0.9534416       -100.7982
1.5                    0.9398855       -102.0926
1.504                  0.9298425        -103.215
1.508                  0.9248917       -104.2911
1.512                  0.9256997       -105.4962
1.516                  0.9317636       -107.0237
1.52                   0.9413987       -109.0476
1.524                  0.9519695       -111.6943
1.528                  0.9602698       -115.0331
1.532                  0.9629322       -119.0824
1.536                  0.9567807       -123.8257
1.54                   0.9390919       -129.2285
1.544                  0.9077674        -135.255
1.548                  0.8614371       -141.8813
1.552                   0.799514        -149.111
1.556                  0.7222203       -156.9976
1.56                   0.6306127       -165.6887
1.564                   0.526661       -175.5283
1.568                  0.4135514        172.6618
1.572                   0.296921        156.6611
1.576                  0.1908057        129.3958
1.58                   0.1434298        76.19754
1.584                  0.2051577        27.09563
1.588                  0.3143956        2.460554
1.592                  0.4306241       -12.62236
1.596                  0.5420663       -24.03264
1.6                    0.6436884       -33.65335
1.604                  0.7325879       -42.19888
1.608                  0.8070046       -49.97196
1.612                   0.866069       -57.10178
1.616                  0.9097338       -63.63322
1.62                   0.9387448       -69.56603
1.624                  0.9546063       -74.87577
1.628                  0.9595152       -79.52846
1.632                  0.9562442       -83.49467
1.636                  0.9479561       -86.76523
1.64                   0.9379318       -89.36784
1.644                  0.9292176       -91.38084
1.648                  0.9242335       -92.93656
1.652                   0.924432       -94.20865
1.656                   0.930118       -95.38297
1.66                   0.9405049       -96.62247
1.664                  0.9539914       -98.03944
1.668                  0.9685618       -99.68428
1.672                  0.9821919       -101.5502
1.676                  0.9931768       -103.5872
1.68                    1.000347       -105.7186
1.684                   1.003174       -107.8558
1.688                    1.00179       -109.9109
1.692                   0.996917       -111.8074
1.696                  0.9897478       -113.4889
1.7                    0.9817539       -114.9279
1.704                    0.97446       -116.1305
1.708                  0.9691976       -117.1375
1.712                  0.9668843       -118.0186
1.716                  0.9678751       -118.8591
1.72                   0.9719242       -119.7432
1.724                  0.9782674       -120.7382
1.728                  0.9857958       -121.8831
1.732                  0.9932769       -123.1856
1.736                  0.9995699       -124.6244
1.74                    1.003799       -126.1567
1.744                    1.00547       -127.7269
1.748                   1.004513       -129.2753
1.752                   1.001277       -130.7473
1.756                  0.9964552       -132.1001
1.76                   0.9909664       -133.3096
1.764                  0.9858078       -134.3738
1.768                  0.9818863       -135.3144
1.772                  0.9798658       -136.1725
1.776                   0.980057       -137.0014
1.78                   0.9823737       -137.8564
1.784                  0.9863664       -138.7845
1.788                  0.9913209       -139.8158
1.792                  0.9963973         -140.96
1.796                    1.00078       -142.2066
1.8                     1.003808       -143.5282
1.804                   1.005073       -144.8868
1.808                   1.004469       -146.2393
1.812                   1.002193        -147.545
1.816                  0.9987058       -148.7711
1.82                   0.9946515       -149.8977
1.824                  0.9907482        -150.921
1.828                  0.9876672        -151.854
1.832                  0.9859208       -152.7243
1.836                  0.9857759       -153.5694
1.84                   0.9872146       -154.4293
1.844                  0.9899474        -155.339
1.848                  0.9934768       -156.3229
1.852                  0.9971916       -157.3907
1.856                   1.000478       -158.5372
1.86                    1.002818       -159.7439
1.864                   1.003874       -160.9832
1.868                   1.003529        -162.223
1.872                   1.001897       -163.4319
1.876                  0.9993022       -164.5838
1.88                   0.9962137       -165.6621
1.884                  0.9931718       -166.6623
1.888                  0.9906936       -167.5925
1.892                  0.9891871       -168.4723
1.896                   0.988883        -169.329
1.9                    0.9897998       -170.1928
1.904                  0.9917474       -171.0909
1.908                  0.9943685       -172.0434
1.912                   0.997206       -173.0594
1.916                  0.9997859        -174.137
1.92                    1.001696       -175.2635
1.924                   1.002651       -176.4188
1.928                    1.00253       -177.5783
1.932                   1.001395       -178.7174
1.936                  0.9994696       -179.8153
1.94                   0.9971003        179.1422
1.944                  0.9946974        178.1602
1.948                  0.9926648        177.2338
1.952                  0.9913326        176.3494
1.956                  0.9909036         175.487
1.96                   0.9914216        174.6238
1.964                  0.9927693        173.7382
1.968                  0.9946944        172.8137
1.972                  0.9968582        171.8415
1.976                  0.9988957        170.8214
1.98                    1.000477        169.7613
1.984                    1.00136        168.6759
1.988                   1.001424        167.5834
1.992                   1.000687        166.5028
1.996                  0.9992935        165.4512
2                      0.9974916        164.4405
2.004                  0.9955865        163.4763
2.008                  0.9938912        162.5566
2.012                  0.9926741        161.6727
2.016                  0.9921156        160.8103
2.02                    0.992282        159.9525
2.024                  0.9931173        159.0825
2.028                  0.9944584        158.1866
2.032                  0.9960659        157.2563
2.036                  0.9976672        156.2894
2.04                   0.9990022        155.2898
2.044                  0.9998639        154.2669
2.048                   1.000129        153.2338
2.052                  0.9997725        152.2045
2.056                  0.9988689        151.1926
2.06                   0.9975751        150.2086
2.064                  0.9961033        149.2585
2.068                  0.9946864        148.3433
2.072                  0.9935396        147.4585
2.076                  0.9928278        146.5954
2.08                   0.9926411        145.7423
2.084                  0.9929838        144.8867
2.088                  0.9937769        144.0172
2.092                  0.9948752        143.1254
2.096                  0.9960914        142.2067
2.1                    0.9972281        141.2614
2.104                  0.9981075        140.2935
2.108                  0.9985969         139.311
2.112                  0.9986255        138.3234
2.116                  0.9981928        137.3412
2.12                   0.9973652        136.3736
2.124                  0.9962639        135.4278
2.128                   0.995046        134.5079
2.132                  0.9938806        133.6142
2.136                  0.9929247        132.7433
2.14                    0.992301        131.8888
2.144                  0.9920824        131.0423
2.148                  0.9922812        130.1944
2.152                  0.9928499        129.3361
2.156                  0.9936886        128.4601
2.16                   0.9946599        127.5619
2.164                  0.9956085        126.6401
2.168                   0.996381        125.6968
2.172                  0.9968479        124.7369
2.176                  0.9969204        123.7679
2.18                   0.9965619        122.7984
2.184                  0.9957948        121.8374
2.188                  0.9946981        120.8929
2.192                  0.9933989        119.9708
2.196                  0.9920573        119.0742
2.2                    0.9908441        118.2022
2.204                  0.9899189        117.3505
2.208                  0.9894049        116.5113
2.212                  0.9893693        115.6743
2.216                  0.9898093        114.8283
2.22                   0.9906492        113.9626
2.224                  0.9917453        113.0686
2.228                  0.9929058        112.1415
2.232                  0.9939152        111.1808
2.236                  0.9945664         110.191
2.24                   0.9946921        109.1807
2.244                   0.994194        108.1622
2.248                  0.9930622        107.1491
2.252                  0.9913843        106.1549
2.256                  0.9893385        105.1905
2.26                   0.9871734        104.2622
2.264                  0.9851735        103.3703
2.268                  0.9836148        102.5084
2.272                  0.9827178        101.6633
2.276                  0.9826045        100.8174
2.28                   0.9832696        99.95033
2.284                  0.9845701        99.04311
2.288                  0.9862402        98.08087
2.292                  0.9879271        97.05582
2.296                  0.9892433        95.96869
2.3                    0.9898299        94.82907
2.304                  0.9894158        93.65417
2.308                  0.9878695        92.46648
2.312                  0.9852301         91.2905
2.316                  0.9817161        90.14875
2.32                   0.9777026        89.05775
2.324                  0.9736729        88.02421
2.328                  0.9701436        87.04246
2.332                  0.9675749        86.09368
2.336                  0.9662799        85.14747
2.34                   0.9663526        84.16611
2.344                  0.9676289         83.1106
2.348                  0.9696933        81.94734
2.352                  0.9719316        80.65408