! TOUCHSTONE file generated by CST MICROWAVE STUDIO
! Date and time: Tue Jun 14 13:15:18 2022
! Project name: AppElm_antenne_patch_FR4.cst
! Parameters = {L=45; W=58.5; e=0.035; h=1.6; lambda=0.190476; ls=120; w0=2.54; w1=0.847; ws=120; y0=21.6; y1=23.8}
! Header version: 2018
! Port assignment regex: !\s*Touchstone port\s*([0-9]+)\s*=\s*(CST MWS port|CST DS port)\s*([0-9]+|Zmin|Zmax)\s*\(\"(.*)\"\)(\s*mode\s*([0-9]+))?.*
! Touchstone port assignment:
! Touchstone port 1 = CST MWS port 1 ("")
# GHz S MA R 50
0                      0.9900379              -0
0.004                  0.9906808       -10.01181
0.008                  0.9925142       -19.92989
0.012                  0.9952684       -29.66526
0.016                  0.9985427       -39.13765
0.02                    1.001869       -48.27817
0.024                   1.004783       -57.03063
0.028                   1.006894       -65.35153
0.032                   1.007935       -73.20968
0.036                   1.007802       -80.58546
0.04                    1.006561       -87.47035
0.044                   1.004436       -93.86664
0.048                   1.001773       -99.78749
0.052                  0.9989897       -105.2567
0.056                   0.996506        -110.308
0.06                   0.9946838       -114.9835
0.064                  0.9937703       -119.3309
0.068                  0.9938609       -123.3999
0.072                  0.9948898        -127.238
0.076                  0.9966457       -130.8868
0.08                   0.9988124       -134.3791
0.084                   1.001024       -137.7373
0.088                   1.002927       -140.9734
0.092                   1.004233       -144.0907
0.096                   1.004763       -147.0857
0.1                      1.00447       -149.9517
0.104                   1.003443       -152.6815
0.108                   1.001883       -155.2703
0.112                   1.000073       -157.7185
0.116                  0.9983265       -160.0325
0.12                   0.9969358       -162.2252
0.124                  0.9961236        -164.315
0.128                  0.9960073       -166.3236
0.132                  0.9965819       -168.2734
0.136                  0.9977252       -170.1844
0.14                   0.9992216       -172.0717
0.144                   1.000804       -173.9438
0.148                     1.0022       -175.8024
0.152                   1.003178       -177.6427
0.156                   1.003583       -179.4555
0.16                    1.003366        178.7712
0.164                   1.002579         177.049
0.168                   1.001375        175.3875
0.172                  0.9999708        173.7917
0.176                  0.9986142        172.2612
0.18                   0.9975398        170.7897
0.184                  0.9969277        169.3663
0.188                  0.9968743        167.9766
0.192                   0.997376        166.6054
0.196                  0.9983322        165.2391
0.2                    0.9995658        163.8677
0.204                   1.000855        162.4863
0.208                   1.001973        161.0959
0.212                   1.002728        159.7021
0.216                   1.002996        158.3148
0.22                    1.002737        156.9454
0.224                   1.002006        155.6054
0.228                   1.000936        154.3036
0.232                  0.9997177        153.0454
0.236                  0.9985676        151.8309
0.24                   0.9976856        150.6552
0.244                  0.9972232        149.5092
0.248                  0.9972557        148.3808
0.252                   0.997771        147.2576
0.256                  0.9986714        146.1284
0.26                   0.9997931        144.9854
0.264                   1.000936        143.8254
0.268                   1.001899        142.6503
0.272                   1.002516        141.4664
0.276                   1.002681        140.2831
0.28                     1.00237        139.1114
0.284                   1.001643        137.9619
0.288                   1.000629        136.8429
0.292                  0.9995095        135.7588
0.296                  0.9984814        134.7096
0.3                    0.9977259        133.6904
0.304                  0.9973744        132.6926
0.308                  0.9974864        131.7052
0.312                  0.9980386        130.7168
0.316                  0.9989304        129.7176
0.32                    1.000002         128.701
0.324                   1.001064         127.665
0.328                   1.001928         126.612
0.332                   1.002446        125.5487
0.336                   1.002527        124.4846
0.34                     1.00216        123.4302
0.344                   1.001411        122.3956
0.348                   1.000414        121.3882
0.352                  0.9993442        120.4121
0.356                  0.9983907        119.4664
0.36                    0.997722        118.5462
0.364                  0.9974553        117.6427
0.368                  0.9976367        116.7454
0.372                  0.9982323        115.8434
0.376                  0.9991354        114.9278
0.38                    1.000185        113.9928
0.384                   1.001196        113.0372
0.388                   1.001989        112.0642
0.392                   1.002427        111.0806
0.396                   1.002432        110.0961
0.4                     1.002004        109.1212
0.404                   1.001219        108.1654
0.408                   1.000215        107.2357
0.412                  0.9991682        106.3354
0.416                  0.9982639        105.4631
0.42                   0.9976614        104.6134
0.424                  0.9974673        103.7774
0.428                  0.9977156        102.9445
0.432                  0.9983619        102.1042
0.436                  0.9992909        101.2481
0.44                    1.000338        100.3711
0.444                   1.001318        99.47274
0.448                   1.002059        98.55672
0.452                   1.002429        97.63049
0.456                   1.002363        96.70382
0.46                    1.001873        95.78722
0.464                   1.001044        94.88997
0.468                   1.000021        94.01857
0.472                  0.9989844        93.17566
0.476                  0.9981171         92.3593
0.48                   0.9975731        91.56346
0.484                  0.9974492        90.77891
0.488                  0.9977681        89.99487
0.492                  0.9984737        89.20105
0.496                  0.9994414        88.38938
0.5                       1.0005        87.55549
0.504                   1.001463        86.69947
0.508                    1.00216        85.82571
0.512                   1.002468        84.94222
0.516                   1.002333        84.05915
0.52                    1.001776        83.18696
0.524                   1.000895        82.33485
0.528                  0.9998429        81.50888
0.532                   0.998806        80.71104
0.536                  0.9979672        79.93877
0.54                    0.997476        79.18536
0.544                  0.9974209        78.44108
0.548                  0.9978127        77.69498
0.552                   0.998583        76.93676
0.556                  0.9995962        76.15869
0.56                    1.000673        75.35699
0.564                   1.001624        74.53242
0.568                    1.00228        73.69013
0.572                   1.002525        72.83868
0.576                   1.002314        71.98867
0.58                    1.001681        71.15076
0.584                   1.000737        70.33395
0.588                  0.9996455        69.54393
0.592                  0.9985986        68.78208
0.596                  0.9977818        68.04509
0.6                    0.9973406        67.32551
0.604                  0.9973551        66.61304
0.608                  0.9978239        65.89637
0.612                  0.9986654        65.16523
0.616                  0.9997313        64.41215
0.62                    1.000833        63.63393
0.624                   1.001776        62.83205
0.628                   1.002392        62.01245
0.632                   1.002572        61.18441
0.636                    1.00228        60.35899
0.64                    1.001565         59.5471
0.644                   1.000551        58.75764
0.648                   0.999413        57.99588
0.652                  0.9983525        57.26252
0.656                   0.997557        56.55348
0.66                   0.9971692        55.86049
0.664                  0.9972601        55.17255
0.668                  0.9978156        54.47794
0.672                  0.9987389         53.7663
0.676                  0.9998679        53.03047
0.68                    1.001003        52.26785
0.684                   1.001943        51.48072
0.688                   1.002521        50.67586
0.692                   1.002633        49.86334
0.696                   1.002255         49.0548
0.7                     1.001451        48.26144
0.704                   1.000359        47.49206
0.708                  0.9991691        46.75156
0.712                  0.9980912         46.0399
0.716                   0.997317        45.35208
0.72                   0.9969861        44.67895
0.724                  0.9971599        44.00875
0.728                  0.9978104        43.32924
0.732                  0.9988248        42.62996
0.736                   1.000025        41.90406
0.74                    1.001198        41.14956
0.744                   1.002137        40.36961
0.748                   1.002674        39.57194
0.752                   1.002711        38.76753
0.756                   1.002237        37.96866
0.76                    1.001331        37.18686
0.764                    1.00015        36.43093
0.768                  0.9988973        35.70526
0.772                  0.9977953        35.00909
0.776                  0.9970401        34.33641
0.78                   0.9967681        33.67704
0.784                  0.9970311        33.01834
0.788                  0.9977858        32.34751
0.792                  0.9989009        31.65393
0.796                    1.00018        30.93106
0.8                     1.001398         30.1776
0.804                   1.002337        29.39767
0.808                    1.00283        28.60004
0.812                   1.002786        27.79669
0.816                   1.002206        27.00065
0.82                    1.001188        26.22386
0.824                  0.9999056        25.47507
0.828                   0.998583        24.75825
0.832                  0.9974533        24.07173
0.836                  0.9967186        23.40845
0.84                   0.9965129        22.75702
0.844                  0.9968771        22.10383
0.848                  0.9977508        21.43541
0.852                  0.9989823        20.74094
0.856                   1.000356        20.01419
0.86                    1.001628         19.2546
0.864                   1.002574        18.46734
0.868                   1.003023        17.66238
0.872                   1.002892         16.8528
0.876                   1.002196        16.05252
0.88                    1.001052        15.27397
0.884                  0.9996572        14.52591
0.888                  0.9982537         13.8118
0.892                  0.9970903        13.12905
0.896                   0.996376        12.46936
0.9                    0.9962423        11.82006
0.904                  0.9967185        11.16634
0.908                  0.9977254        10.49397
0.912                  0.9990888        9.791887
0.916                   1.000569         9.05415
0.92                    1.001906        8.281013
0.924                   1.002861        7.478825
0.928                   1.003261        6.658901
0.932                   1.003031        5.835594
0.936                   1.002201        5.023871
0.94                     1.00091        4.236763
0.944                  0.9993796        3.483088
0.948                  0.9978757          2.7658
0.952                  0.9966646        2.081295
0.956                  0.9959643        1.419872
0.96                   0.9959046       0.7673519
0.964                  0.9965027       0.1075848
0.968                  0.9976584      -0.5746066
0.972                  0.9991716       -1.290658
0.976                   1.000777       -2.046206
0.98                     1.00219       -2.840121
0.984                   1.003159       -3.664748
0.988                   1.003508       -4.507243
0.992                   1.003166       -5.351754
0.996                   1.002184       -6.182081
1                       1.000723       -6.984426
1.004                  0.9990332       -7.749813
1.008                  0.9974087       -8.475809
1.012                  0.9961371        -9.16715
1.016                  0.9954483       -9.835128
1.02                   0.9954717        -10.4957
1.024                  0.9962117       -11.16663
1.028                  0.9975446       -11.86428
1.032                  0.9992401       -12.60061
1.036                   1.001002       -13.38099
1.04                    1.002518       -14.20337
1.044                   1.003519       -15.05856
1.048                   1.003821       -15.93201
1.052                    1.00336         -16.806
1.056                   1.002205       -17.66289
1.06                    1.000546       -18.48778
1.064                  0.9986666       -19.27148
1.068                  0.9968937       -20.01201
1.072                  0.9955423       -20.71533
1.076                  0.9948583       -21.39463
1.08                   0.9949732       -22.06792
1.084                  0.9958773       -22.75506
1.088                  0.9974206       -23.47385
1.092                  0.9993375       -24.23697
1.096                   1.001293       -25.04968
1.1                     1.002943       -25.90886
1.104                   1.003992       -26.80365
1.108                   1.004246       -27.71731
1.112                   1.003646       -28.63001
1.116                   1.002281       -29.52206
1.12                    1.000375       -30.37728
1.124                  0.9982515        -31.1859
1.128                  0.9962787       -31.94629
1.132                  0.9948074       -32.66592
1.136                  0.9941065       -33.36009
1.14                   0.9943129       -34.04947
1.144                  0.9954037       -34.75641
1.148                  0.9971981       -35.50081
1.152                  0.9993878       -36.29644
1.156                   1.001591        -37.1485
1.16                    1.003418       -38.05279
1.164                   1.004542       -38.99643
1.168                    1.00475        -39.9601
1.172                   1.003988       -40.92117
1.176                   1.002366       -41.85741
1.18                    1.000147       -42.75071
1.184                  0.9977057       -43.59029
1.188                  0.9954643        -44.3749
1.192                  0.9938218       -45.11353
1.196                  0.9930808       -45.82418
1.2                    0.9933898       -46.53092
1.204                  0.9947129       -47.25949
1.208                   0.996833       -48.03263
1.212                  0.9993877        -48.8658
1.216                   1.001933       -49.76446
1.22                    1.004021       -50.72321
1.224                   1.005276       -51.72673
1.228                   1.005458       -52.75239
1.232                    1.00451       -53.77388
1.236                   1.002568       -54.76545
1.24                   0.9999418       -55.70614
1.244                  0.9970725       -56.58357
1.248                   0.994456        -57.3965
1.252                  0.9925594       -58.15573
1.256                  0.9917361       -58.88268
1.26                   0.9921572       -59.60595
1.264                  0.9937755       -60.35609
1.268                  0.9963289       -61.15994
1.272                  0.9993844       -62.03564
1.276                   1.002413       -62.98937
1.28                    1.004881       -64.01441
1.284                    1.00634       -65.09237
1.288                   1.006509       -66.19618
1.292                   1.005318       -67.29439
1.296                   1.002928       -68.35611
1.3                    0.9997144       -69.35602
1.304                  0.9962065        -70.2789
1.308                  0.9930069       -71.12296
1.312                  0.9906862       -71.90105
1.316                  0.9896799       -72.63923
1.32                   0.9902019       -73.37261
1.324                  0.9921988       -74.13891
1.328                  0.9953513       -74.97147
1.332                  0.9991269       -75.89289
1.336                   1.002871       -76.91103
1.34                    1.005921        -78.0178
1.344                   1.007715       -79.19064
1.348                   1.007893       -80.39617
1.352                   1.006356       -81.59529
1.356                   1.003295       -82.74908
1.36                   0.9991691       -83.82501
1.364                  0.9946428        -84.8027
1.368                  0.9904839       -85.67849
1.372                   0.987434       -86.46761
1.376                  0.9860714       -87.20292
1.38                   0.9866967       -87.92983
1.384                   0.989263        -88.6981
1.388                  0.9933719       -89.55233
1.392                  0.9983374       -90.52339
1.396                   1.003301       -91.62293
1.4                     1.007379       -92.84157
1.404                    1.00981       -94.15081
1.408                   1.010081       -95.50739
1.412                   1.008021       -96.85966
1.416                   1.003843       -98.15483
1.42                   0.9981282       -99.34697
1.424                  0.9917624        -100.405
1.428                  0.9858055       -101.3199
1.432                  0.9813193        -102.109
1.436                  0.9791735       -102.8163
1.44                   0.9798664       -103.5061
1.444                  0.9834036        -104.252
1.448                  0.9892706       -105.1218
1.452                  0.9965058       -106.1651
1.456                   1.003859       -107.4033
1.46                    1.010001       -108.8278
1.464                   1.013731       -110.4008
1.468                   1.014176       -112.0622
1.472                   1.010937       -113.7368
1.476                   1.004175       -115.3431
1.48                   0.9946449       -116.8047
1.484                  0.9836378       -118.0616
1.488                  0.9728408       -119.0844
1.492                  0.9640961       -119.8867
1.496                  0.9590781       -120.5327
1.5                    0.9589353       -121.1337
1.504                  0.9639882       -121.8309
1.508                  0.9735703       -122.7684
1.512                  0.9860678        -124.064
1.516                  0.9991377       -125.7898
1.52                    1.010028        -127.965
1.524                   1.015918       -130.5598
1.528                   1.014216        -133.504
1.532                   1.002795       -136.6949
1.536                  0.9801725       -140.0016
1.54                   0.9456463       -143.2639
1.544                  0.8994127       -146.2841
1.548                  0.8426971       -148.8133
1.552                  0.7779293       -150.5313
1.556                  0.7089955       -151.0289
1.56                   0.6415712       -149.8193
1.564                   0.583354        -146.453
1.568                  0.5435318       -140.8474
1.572                  0.5303492       -133.7568
1.576                  0.5469943       -126.7689
1.58                   0.5895092       -121.4074
1.584                  0.6493475       -118.3118
1.588                  0.7174216       -117.3322
1.592                  0.7862709       -118.0031
1.596                   0.850448       -119.8438
1.6                     0.906253       -122.4564
1.604                  0.9514057       -125.5305
1.608                  0.9848029       -128.8245
1.612                    1.00635       -132.1467
1.616                   1.016833       -135.3409
1.62                    1.017798       -138.2804
1.624                   1.011413       -140.8663
1.628                   1.000284       -143.0328
1.632                   0.987214       -144.7548
1.636                  0.9749064        -146.056
1.64                   0.9656272       -147.0119
1.644                  0.9608979       -147.7415
1.648                   0.961296       -148.3874
1.652                   0.966435       -149.0869
1.656                  0.9751347       -149.9462
1.66                   0.9857273       -151.0246
1.664                  0.9964069       -152.3322
1.668                   1.005542       -153.8376
1.672                   1.011905       -155.4809
1.676                     1.0148       -157.1862
1.68                    1.014112       -158.8746
1.684                    1.01027       -160.4732
1.688                   1.004156        -161.925
1.692                  0.9969523       -163.1955
1.696                  0.9899521       -164.2785
1.7                    0.9843522       -165.1972
1.704                   0.981054        -166.001
1.708                  0.9805183       -166.7565
1.712                   0.982702       -167.5341
1.716                  0.9870941       -168.3948
1.72                   0.9928385       -169.3789
1.724                  0.9989079       -170.5015
1.728                   1.004291       -171.7522
1.732                   1.008157       -173.1001
1.736                   1.009969       -174.5002
1.74                    1.009553       -175.9019
1.744                   1.007099        -177.256
1.748                   1.003117       -178.5222
1.752                  0.9983469       -179.6745
1.756                  0.9936325        179.2943
1.76                   0.9897798        178.3718
1.764                  0.9874212        177.5274
1.768                  0.9869087        176.7184
1.772                  0.9882608        175.8979
1.776                  0.9911719         175.024
1.78                   0.9950819        174.0667
1.784                  0.9992883        173.0131
1.788                   1.003074         171.868
1.792                   1.005828        170.6513
1.796                   1.007139        169.3944
1.8                      1.00685        168.1337
1.804                   1.005076        166.9057
1.808                   1.002171        165.7407
1.812                  0.9986676        164.6587
1.816                  0.9951844        163.6657
1.82                   0.9923193        162.7531
1.824                  0.9905478        161.8991
1.828                  0.9901419        161.0724
1.832                  0.9911274        160.2384
1.836                  0.9932863        159.3656
1.84                   0.9962063        158.4313
1.844                  0.9993599        157.4249
1.848                   1.002202        156.3493
1.852                   1.004261        155.2194
1.856                   1.005217        154.0591
1.86                    1.004946        152.8964
1.864                   1.003534        151.7598
1.868                   1.001256        150.6727
1.872                  0.9985251        149.6506
1.876                  0.9958238         148.698
1.88                   0.9936159        147.8079
1.884                  0.9922691         146.963
1.888                  0.9919905        146.1388
1.892                  0.9927947        145.3083
1.896                  0.9945057        144.4472
1.9                    0.9967951        143.5378
1.904                  0.9992461        142.5721
1.908                   1.001428        141.5528
1.912                   1.002973        140.4921
1.916                   1.003634         139.409
1.92                    1.003321        138.3263
1.924                   1.002116        137.2665
1.928                   1.000248        136.2479
1.932                  0.9980561        135.2822
1.936                  0.9959262         134.372
1.94                   0.9942247        133.5109
1.944                   0.993234        132.6841
1.948                   0.993104        131.8717
1.952                  0.9938281        131.0522
1.956                  0.9952487        130.2065
1.96                   0.9970906        129.3213
1.964                  0.9990139        128.3913
1.968                   1.000676        127.4196
1.972                    1.00179         126.417
1.976                   1.002175        125.3994
1.98                    1.001781        124.3856
1.984                   1.000696        123.3932
1.988                  0.9991237        122.4364
1.992                  0.9973494        121.5233
1.996                  0.9956863        120.6544
2                      0.9944199        119.8229
2.004                  0.9937577        119.0159
2.008                  0.9937935        118.2168
2.012                  0.9944925        117.4083
2.016                  0.9957026         116.576
2.02                   0.9971843        115.7106
2.024                  0.9986577        114.8095
2.028                  0.9998534        113.8769
2.032                   1.000561        112.9228
2.036                   1.000662        111.9612
2.04                     1.00015        111.0071
2.044                  0.9991289        110.0742
2.048                   0.997789        109.1724
2.052                  0.9963732        108.3063
2.056                  0.9951312        107.4742
2.06                   0.9942743        106.6684
2.064                  0.9939366         105.877
2.068                  0.9941531        105.0863
2.072                  0.9948546         104.283
2.076                   0.995885         103.457
2.08                   0.9970314        102.6029
2.084                   0.998067        101.7213
2.088                  0.9987924        100.8179
2.092                  0.9990718        99.90266
2.096                  0.9988558        98.98751
2.1                    0.9981881        98.08437
2.104                  0.9971954        97.20281
2.108                  0.9960612        96.34843
2.112                  0.9949909        95.52179
2.116                  0.9941718         94.7183
2.12                   0.9937378        93.92932
2.124                  0.9937443        93.14376
2.128                  0.9941594        92.35037
2.132                  0.9948714         91.5399
2.136                   0.995713        90.70692
2.14                   0.9964949        89.85071
2.144                  0.9970435        88.97527
2.148                  0.9972341        88.08845
2.152                  0.9970149        87.20034
2.156                  0.9964158        86.32114
2.16                    0.995542        85.45934
2.164                  0.9945522        84.61988
2.168                  0.9936271        83.80321
2.172                  0.9929325        83.00509
2.176                  0.9925854         82.2175
2.18                   0.9926299        81.43015
2.184                  0.9930271        80.63266
2.188                  0.9936631        79.81668
2.192                  0.9943713        78.97762
2.196                  0.9949668        78.11557
2.2                    0.9952839        77.23542
2.204                   0.995211        76.34571
2.208                  0.9947137        75.45708
2.212                  0.9938451         74.5801
2.216                   0.992737        73.72308
2.22                   0.9915753        72.89018
2.224                  0.9905645        72.08036
2.228                   0.989885        71.28735
2.232                   0.989654        70.50052
2.236                  0.9898984        69.70698
2.24                   0.9905438        68.89413
2.244                  0.9914252        68.05226
2.248                  0.9923165        67.17668
2.252                  0.9929738        66.26889
2.256                   0.993184        65.33644
2.26                   0.9928087        64.39173
2.264                  0.9918176        63.44979
2.268                  0.9902999        62.52545
2.272                  0.9884557        61.63026
2.276                  0.9865637        60.76995
2.28                    0.984931        59.94265
2.284                  0.9838328        59.13844
2.288                  0.9834535        58.34072
2.292                  0.9838422        57.52889
2.296                  0.9848911        56.68231
2.3                    0.9863467        55.78432
2.304                  0.9878485        54.82577
2.308                  0.9889931        53.80709
2.312                  0.9894071        52.73862
2.316                  0.9888215        51.63919
2.32                    0.987128        50.53304
2.324                  0.9844126         49.4458
2.328                  0.9809559        48.39966
2.332                   0.977197        47.40868
2.336                  0.9736643        46.47492
2.34                   0.9708808        45.58623
2.344                   0.969258        44.71675
2.348                  0.9690018        43.83028
2.352                  0.9700496        42.88638