! TOUCHSTONE file generated by CST MICROWAVE STUDIO
! Date and time: Tue Jun 14 13:15:16 2022
! Project name: AppElm_antenne_patch_FR4.cst
! Parameters = {L=45; W=58.5; e=0.035; h=1.6; lambda=0.190476; ls=120; w0=2.54; w1=0.847; ws=120; y0=19.8; y1=23.8}
! Header version: 2018
! Port assignment regex: !\s*Touchstone port\s*([0-9]+)\s*=\s*(CST MWS port|CST DS port)\s*([0-9]+|Zmin|Zmax)\s*\(\"(.*)\"\)(\s*mode\s*([0-9]+))?.*
! Touchstone port assignment:
! Touchstone port 1 = CST MWS port 1 ("")
# GHz S MA R 50
0                      0.9889507              -0
0.004                  0.9896359       -9.997454
0.008                  0.9915933       -19.90136
0.012                  0.9945442       -29.62297
0.016                  0.9980735       -39.08231
0.02                    1.001694       -48.21084
0.024                   1.004917       -56.95262
0.028                   1.007326       -65.26441
0.032                   1.008628       -73.11497
0.036                    1.00869       -80.48438
0.04                    1.007557       -87.36332
0.044                   1.005436       -93.75293
0.048                    1.00267       -99.66483
0.052                  0.9996797       -105.1211
0.056                  0.9969067       -110.1536
0.06                   0.9947454       -114.8033
0.064                  0.9934844       -119.1171
0.068                   0.993265        -123.145
0.072                  0.9940643       -126.9358
0.076                  0.9957037       -130.5335
0.08                   0.9978852       -133.9734
0.084                   1.000243        -137.281
0.088                   1.002402       -140.4711
0.092                   1.004041       -143.5488
0.096                   1.004932       -146.5121
0.1                     1.004976       -149.3542
0.104                   1.004212       -152.0669
0.108                   1.002801       -154.6436
0.112                      1.001       -157.0818
0.116                  0.9991211       -159.3846
0.12                   0.9974741        -161.562
0.124                  0.9963212       -163.6297
0.128                  0.9958331       -165.6081
0.132                  0.9960645       -167.5195
0.136                  0.9969485       -169.3851
0.14                   0.9983122       -171.2225
0.144                    0.99991       -173.0436
0.148                   1.001467       -174.8535
0.152                   1.002726       -176.6505
0.156                   1.003488       -178.4276
0.16                    1.003644        179.8261
0.164                   1.003188        178.1225
0.168                   1.002217        176.4726
0.172                   1.000908        174.8843
0.176                  0.9994932        173.3605
0.18                    0.998215        171.8988
0.184                  0.9972868        170.4911
0.188                  0.9968575        169.1253
0.192                  0.9969866        167.7869
0.196                  0.9976371        166.4614
0.2                    0.9986834        165.1365
0.204                  0.9999351        163.8043
0.208                   1.001173        162.4618
0.212                   1.002184        161.1113
0.216                   1.002801        159.7598
0.22                    1.002926        158.4174
0.224                   1.002548        157.0953
0.228                   1.001741        155.8039
0.232                    1.00065        154.5511
0.236                  0.9994683        153.3405
0.24                   0.9983999        152.1712
0.244                   0.997627        151.0374
0.248                   0.997278        149.9296
0.252                  0.9974061        148.8361
0.256                  0.9979811        147.7452
0.26                   0.9988947        146.6468
0.264                  0.9999831        145.5345
0.268                   1.001054        144.4063
0.272                   1.001923        143.2647
0.276                   1.002442        142.1162
0.28                    1.002526        140.9703
0.284                   1.002165        139.8372
0.288                   1.001428        138.7266
0.292                   1.000445        137.6457
0.296                  0.9993903         136.598
0.3                    0.9984469        135.5829
0.304                  0.9977789        134.5951
0.308                  0.9974999        133.6263
0.312                  0.9976554         132.666
0.316                   0.998214        131.7038
0.32                   0.9990745        130.7308
0.324                   1.000084        129.7414
0.328                   1.001065        128.7343
0.332                   1.001848        127.7121
0.336                   1.002298        126.6812
0.34                    1.002339        125.6505
0.344                   1.001968          124.63
0.348                   1.001251        123.6287
0.352                   1.000315        122.6532
0.356                  0.9993256        121.7069
0.36                   0.9984551        120.7887
0.364                  0.9978555        119.8937
0.368                  0.9976314        119.0139
0.372                  0.9978203        118.1394
0.376                  0.9983871        117.2603
0.38                    0.999231        116.3686
0.384                   1.000203        115.4591
0.388                   1.001132        114.5309
0.392                   1.001856         113.587
0.396                   1.002249        112.6339
0.4                     1.002245        111.6803
0.404                   1.001843         110.736
0.408                   1.001116        109.8097
0.412                    1.00019        108.9076
0.416                  0.9992276        108.0326
0.42                   0.9983972        107.1835
0.424                  0.9978448        106.3553
0.428                  0.9976671        105.5398
0.432                  0.9978948        104.7272
0.436                  0.9984876        103.9081
0.44                   0.9993405        103.0748
0.444                   1.000303        102.2225
0.448                   1.001206        101.3508
0.452                   1.001891        100.4629
0.456                   1.002239        99.56577
0.46                    1.002188        98.66819
0.464                   1.001746        97.77977
0.468                    1.00099        96.90906
0.472                   1.000052        96.06214
0.476                  0.9990958        95.24148
0.48                   0.9982896         94.4455
0.484                  0.9977755        93.66876
0.488                   0.997645         92.9029
0.492                  0.9979214        92.13811
0.496                   0.998557         91.3649
0.5                      0.99944        90.57571
0.504                   1.000415        89.76637
0.508                   1.001312        88.93669
0.512                   1.001971        88.09052
0.516                   1.002277        87.23503
0.52                    1.002176        86.37947
0.524                   1.001683        85.53353
0.528                   1.000883        84.70572
0.532                  0.9999143        83.90194
0.536                  0.9989478        83.12423
0.54                   0.9981528        82.37059
0.544                  0.9976704        81.63506
0.548                   0.997587        80.90887
0.552                  0.9979189        80.18189
0.556                  0.9986087        79.44453
0.56                   0.9995356        78.68942
0.564                   1.000537        77.91263
0.568                   1.001435        77.11455
0.572                   1.002073        76.29956
0.576                   1.002335        75.47538
0.58                    1.002175        74.65171
0.584                   1.001616        73.83853
0.588                   1.000755        73.04443
0.592                  0.9997395        72.27506
0.596                  0.9987481        71.53214
0.6                    0.9979551        70.81306
0.604                  0.9975014        70.11122
0.608                  0.9974693        69.41722
0.612                  0.9978662        68.72052
0.616                   0.998624        68.01132
0.62                     0.99961        67.28226
0.624                    1.00065        66.52985
0.628                   1.001562        65.75495
0.632                   1.002182        64.96265
0.636                   1.002401        64.16137
0.64                    1.002175        63.36139
0.644                   1.001541        62.57311
0.648                   1.000607        61.80522
0.652                  0.9995351        61.06322
0.656                  0.9985122        60.34836
0.66                     0.99772        59.65731
0.664                  0.9973004        58.98271
0.668                  0.9973305        58.31443
0.672                  0.9978083        57.64131
0.676                   0.998652        56.95324
0.68                   0.9997146        56.24293
0.684                   1.000809        55.50723
0.688                   1.001743        54.74768
0.692                    1.00235        53.97015
0.696                    1.00252        53.18394
0.7                      1.00222        52.40006
0.704                   1.001499        51.62939
0.708                   1.000478        50.88083
0.712                  0.9993352        50.15969
0.716                  0.9982713        49.46667
0.72                   0.9974753        48.79768
0.724                   0.997091         48.1444
0.728                  0.9971903        47.49577
0.732                  0.9977594        46.83993
0.736                  0.9987011        46.16639
0.74                    0.999851        45.46788
0.744                   1.001007         44.7417
0.748                   1.001964        43.99013
0.752                   1.002551        43.22004
0.756                   1.002661         42.4417
0.76                    1.002268        41.66701
0.764                   1.001437        40.90747
0.768                   1.000308         40.1722
0.772                  0.9990754         39.4663
0.776                  0.9979568        38.78988
0.78                   0.9971505        38.13787
0.784                  0.9968024        37.50085
0.788                  0.9969785        36.86668
0.792                  0.9976516        36.22263
0.796                  0.9987062        35.55774
0.8                    0.9999574        34.86477
0.804                   1.001185        34.14152
0.808                   1.002169        33.39117
0.812                   1.002734        32.62172
0.816                   1.002774        31.84459
0.82                    1.002276        31.07273
0.824                   1.001318        30.31835
0.828                   1.000065        29.59086
0.832                  0.9987315        28.89511
0.836                  0.9975529        28.23047
0.84                   0.9967397        27.59076
0.844                  0.9964399        26.96524
0.848                  0.9967124        26.34045
0.852                  0.9975143        25.70269
0.856                  0.9987081        25.04043
0.86                    1.000085        24.34647
0.864                   1.001403        23.61919
0.868                   1.002427        22.86281
0.872                   1.002972        22.08665
0.876                   1.002937        21.30354
0.88                    1.002319        20.52761
0.884                   1.001219        19.77195
0.888                  0.9998233        19.04627
0.892                  0.9983746        18.35517
0.896                  0.9971285        17.69716
0.9                    0.9963088        17.06474
0.904                   0.996067        16.44561
0.908                  0.9964533        15.82483
0.912                  0.9974062        15.18747
0.916                  0.9987628        14.52139
0.92                    1.000286        13.81943
0.924                   1.001708        13.08064
0.928                   1.002774        12.31049
0.932                   1.003293        11.51986
0.936                   1.003164        10.72319
0.94                    1.002399        9.936075
0.944                   1.001124        9.172595
0.948                   0.999554        8.442879
0.952                  0.9979613        7.751227
0.956                  0.9966271        7.095152
0.96                   0.9957919        6.465611
0.964                  0.9956108        5.848464
0.968                  0.9961247         5.22695
0.972                  0.9972506        4.584733
0.976                  0.9987947        3.908896
0.98                    1.000487        3.192293
0.984                   1.002029          2.4348
0.988                   1.003145        1.643315
0.992                    1.00363       0.8305483
0.996                   1.003388       0.0128743
1                        1.00245      -0.7924033
1.004                   1.000965       -1.569972
1.008                  0.9991864       -2.309189
1.012                  0.9974214       -3.006083
1.016                  0.9959822       -3.664308
1.02                   0.9951293       -4.294751
1.024                  0.9950233       -4.913771
1.028                  0.9956938        -5.54032
1.032                  0.9970322       -6.192472
1.036                   0.998809       -6.884109
1.04                    1.000714        -7.62239
1.044                   1.002411       -8.406508
1.048                   1.003596       -9.227861
1.052                   1.004051       -10.07156
1.056                   1.003684       -10.91889
1.06                    1.002541       -11.75046
1.064                   1.000809       -12.54945
1.068                  0.9987806       -13.30443
1.072                  0.9968065       -14.01188
1.076                  0.9952375        -14.6767
1.08                   0.9943596       -15.31202
1.084                  0.9943412        -15.9369
1.088                  0.9951997       -16.57298
1.092                  0.9967958       -17.24051
1.096                  0.9988564       -17.95459
1.1                     1.001022       -18.72249
1.104                   1.002911       -19.54236
1.108                   1.004183       -20.40349
1.112                   1.004603       -21.28832
1.116                   1.004078       -22.17532
1.12                    1.002679       -23.04248
1.124                   1.000631       -23.87087
1.128                  0.9982781       -24.64822
1.132                  0.9960265        -25.3711
1.136                  0.9942756       -26.04611
1.14                   0.9933457       -26.68901
1.144                   0.993417       -27.32225
1.148                  0.9944946       -27.97089
1.152                  0.9964026       -28.65802
1.156                  0.9988143       -29.40045
1.16                    1.001309       -30.20566
1.164                   1.003444       -31.07056
1.168                   1.004834       -31.98203
1.172                   1.005218       -32.91925
1.176                   1.004503       -33.85699
1.18                    1.002784        -34.7698
1.184                   1.000335       -35.63613
1.188                  0.9975632       -36.44218
1.192                  0.9949478       -37.18469
1.196                  0.9929529       -37.87207
1.2                    0.9919463       -38.52345
1.204                  0.9921281       -39.16566
1.208                  0.9934901       -39.82835
1.212                  0.9958119       -40.53847
1.216                  0.9986982       -41.31526
1.22                    1.001647       -42.16674
1.224                   1.004137       -43.08844
1.228                   1.005719       -44.06421
1.232                   1.006092       -45.06898
1.236                   1.005155       -46.07278
1.24                    1.003035       -47.04546
1.244                   1.000063        -47.9617
1.248                   0.996734       -48.80537
1.252                  0.9936201         -49.573
1.256                  0.9912774       -50.27512
1.26                   0.9901431       -50.93524
1.264                  0.9904505       -51.58606
1.268                  0.9921798       -52.26359
1.272                   0.995055       -53.00033
1.276                  0.9985895       -53.81918
1.28                     1.00217       -54.72927
1.284                   1.005165       -55.72456
1.288                   1.007029       -56.78497
1.292                     1.0074       -57.87979
1.296                   1.006162       -58.97243
1.3                      1.00347       -60.02607
1.304                   0.999736       -61.00961
1.308                  0.9955688       -61.90305
1.312                  0.9916791       -62.70191
1.316                   0.988759       -63.41917
1.32                    0.987355       -64.08418
1.324                   0.987761       -64.73813
1.328                  0.9899528        -65.4265
1.332                  0.9935823       -66.19046
1.336                  0.9980353       -67.05886
1.34                    1.002537       -68.04321
1.344                   1.006284       -69.13579
1.348                   1.008587       -70.31126
1.352                   1.008978       -71.53091
1.356                   1.007301       -72.74841
1.36                    1.003743       -73.91664
1.364                    0.99882        -74.9951
1.368                  0.9933125       -75.95682
1.372                  0.9881437       -76.79449
1.376                  0.9842288       -77.52368
1.38                   0.9823053       -78.18232
1.384                  0.9827849       -78.82498
1.388                  0.9856584       -79.51306
1.392                  0.9904804       -80.30271
1.396                  0.9964398       -81.23391
1.4                     1.002499       -82.32325
1.404                   1.007573       -83.56161
1.408                   1.010706       -84.91631
1.412                   1.011237       -86.33631
1.416                   1.008906       -87.75959
1.42                    1.003917        -89.1216
1.424                  0.9969343       -90.36453
1.428                  0.9890086       -91.44714
1.432                  0.9814334       -92.35406
1.436                  0.9755388       -93.10256
1.44                   0.9724484       -93.74403
1.444                  0.9728447       -94.35754
1.448                  0.9768029       -95.03586
1.452                  0.9837403       -95.86663
1.456                  0.9925004       -96.91471
1.46                    1.001548       -98.21055
1.464                   1.009226        -99.7464
1.468                   1.014022       -101.4794
1.472                     1.0148       -103.3386
1.476                   1.010986       -105.2341
1.48                    1.002685       -107.0674
1.484                  0.9907235       -108.7425
1.488                  0.9766122       -110.1807
1.492                  0.9623952       -111.3372
1.496                   0.950376       -112.2197
1.5                    0.9427191       -112.9011
1.504                  0.9409835       -113.5199
1.508                  0.9457013       -114.2591
1.512                  0.9561429       -115.3104
1.516                  0.9703541       -116.8338
1.52                   0.9854377       -118.9312
1.524                    0.99797       -121.6393
1.528                   1.004424       -124.9381
1.532                   1.001518       -128.7655
1.536                  0.9864713       -133.0306
1.54                   0.9571713       -137.6216
1.544                  0.9122784        -142.406
1.548                  0.8512913       -147.2213
1.552                  0.7746012       -151.8517
1.556                  0.6835728       -155.9769
1.56                   0.5807434       -159.0594
1.564                  0.4703911       -160.0752
1.568                  0.3603029       -156.8439
1.572                  0.2673402       -144.7516
1.576                  0.2275957       -119.6782
1.58                    0.269691       -94.92017
1.584                  0.3637564       -83.19499
1.588                  0.4742915       -80.15794
1.592                  0.5848408       -81.28068
1.596                   0.687748       -84.43377
1.6                    0.7787706        -88.6146
1.604                  0.8553762       -93.29479
1.608                  0.9161934       -98.15826
1.612                  0.9608225       -102.9909
1.616                  0.9897585       -107.6306
1.62                    1.004341       -111.9445
1.624                   1.006694       -115.8195
1.628                  0.9996199       -119.1631
1.632                  0.9864386        -121.911
1.636                  0.9707315       -124.0414
1.64                   0.9559869       -125.5902
1.644                  0.9451669       -126.6606
1.648                  0.9402766       -127.4164
1.652                  0.9420654       -128.0543
1.656                  0.9499836       -128.7634
1.66                   0.9624207       -129.6863
1.664                  0.9771389       -130.8982
1.668                  0.9917546       -132.4066
1.672                   1.004149        -134.165
1.676                    1.01275        -136.092
1.68                    1.016689       -138.0886
1.684                   1.015839       -140.0527
1.688                   1.010778       -141.8906
1.692                   1.002668       -143.5276
1.696                  0.9930757       -144.9176
1.7                    0.9837324       -146.0501
1.704                  0.9762585        -146.955
1.708                  0.9718942       -147.6986
1.712                   0.971287       -148.3726
1.716                  0.9743939       -149.0749
1.72                   0.9805243       -149.8906
1.724                  0.9885103       -150.8757
1.728                  0.9969502       -152.0504
1.732                   1.004465       -153.4002
1.736                    1.00992       -154.8828
1.74                    1.012576       -156.4379
1.744                   1.012175       -157.9975
1.748                    1.00895       -159.4951
1.752                   1.003568        -160.875
1.756                  0.9970216       -162.0998
1.76                   0.9904627       -163.1566
1.764                  0.9850181       -164.0598
1.768                   0.981596       -164.8494
1.772                  0.9807291       -165.5843
1.776                  0.9824881       -166.3307
1.78                   0.9864835        -167.149
1.784                  0.9919583        -168.083
1.788                   0.997941       -169.1529
1.792                   1.003425       -170.3539
1.796                   1.007539       -171.6596
1.8                     1.009672       -173.0279
1.804                   1.009562       -174.4087
1.808                   1.007317       -175.7512
1.812                   1.003384       -177.0116
1.816                  0.9984783       -178.1591
1.82                   0.9934569       -179.1811
1.824                  0.9891814         179.914
1.828                  0.9863687        179.0987
1.832                  0.9854674          178.33
1.836                  0.9865825        177.5585
1.84                   0.9894657        176.7372
1.844                  0.9935721        175.8305
1.848                  0.9981692        174.8197
1.852                   1.002472        173.7058
1.856                   1.005776        172.5067
1.86                    1.007569         171.254
1.864                   1.007606         169.987
1.868                   1.005933        168.7464
1.872                   1.002877        167.5681
1.876                  0.9989872        166.4781
1.88                   0.9949396        165.4878
1.884                   0.991426        164.5924
1.888                  0.9890351        163.7711
1.892                  0.9881508        162.9908
1.896                  0.9888872        162.2123
1.9                    0.9910744        161.3976
1.904                  0.9942969        160.5169
1.908                  0.9979758        159.5536
1.912                   1.001475        158.5063
1.916                   1.004213        157.3883
1.92                    1.005751        156.2243
1.924                   1.005866         155.046
1.928                   1.004574         153.887
1.932                   1.002125        152.7774
1.936                  0.9989548        151.7391
1.94                   0.9956129        150.7826
1.944                  0.9926691        149.9048
1.948                  0.9906153        149.0896
1.952                   0.989781        148.3105
1.956                  0.9902777        147.5355
1.96                    0.991984        146.7334
1.964                  0.9945727        145.8789
1.968                  0.9975759        144.9574
1.972                    1.00047        143.9667
1.976                   1.002767        142.9166
1.98                    1.004096         141.827
1.984                   1.004255         140.724
1.988                   1.003245        139.6352
1.992                    1.00126        138.5861
1.996                  0.9986535        137.5954
2                       0.995875        136.6722
2.004                  0.9933967        135.8145
2.008                  0.9916293        135.0097
2.012                   0.990854        134.2362
2.016                  0.9911737         133.468
2.02                   0.9924997        132.6793
2.024                  0.9945735        131.8489
2.028                  0.9970149        130.9639
2.032                  0.9993947         130.022
2.036                   1.001308        129.0305
2.04                    1.002441        128.0053
2.044                   1.002619        126.9676
2.048                   1.001834        125.9403
2.052                   1.000236        124.9443
2.056                   0.998107        123.9953
2.06                   0.9958125        123.1012
2.064                  0.9937365        122.2608
2.068                  0.9922169        121.4642
2.072                   0.991487        120.6942
2.076                  0.9916395        119.9301
2.08                   0.9926115        119.1508
2.084                  0.9942031        118.3392
2.088                  0.9961151        117.4843
2.092                  0.9980049        116.5835
2.096                  0.9995469        115.6423
2.1                     1.000485        114.6728
2.104                   1.000673        113.6915
2.108                   1.000094        112.7166
2.112                  0.9988583        111.7648
2.116                  0.9971813        110.8487
2.12                   0.9953434        109.9747
2.124                   0.993642        109.1425
2.128                   0.992341        108.3448
2.132                  0.9916267         107.569
2.136                  0.9915787        106.7993
2.14                   0.9921611        106.0199
2.144                  0.9932333        105.2173
2.148                  0.9945794        104.3829
2.152                  0.9959483        103.5139
2.156                   0.997098        102.6136
2.16                    0.997834        101.6901
2.164                  0.9980397        100.7549
2.168                  0.9976895        99.82107
2.172                  0.9968481         98.9004
2.176                  0.9956541        98.00219
2.18                   0.9942938        97.13164
2.184                  0.9929676        96.28926
2.188                  0.9918571        95.47099
2.192                  0.9910963         94.6692
2.196                  0.9907535        93.87416
2.2                    0.9908255        93.07564
2.204                  0.9912438         92.2648
2.208                  0.9918922        91.43529
2.212                  0.9926292        90.58405
2.216                  0.9933126         89.7114
2.22                   0.9938214        88.82053
2.224                  0.9940713        87.91662
2.228                  0.9940213        87.00587
2.232                  0.9936738        86.09432
2.236                  0.9930674        85.18714
2.24                   0.9922654        84.28804
2.244                  0.9913434        83.39905
2.248                  0.9903787        82.52052
2.252                   0.989441        81.65152
2.256                  0.9885885         80.7901
2.26                   0.9878661         79.9336
2.264                   0.987307        79.07901
2.268                  0.9869326        78.22286
2.272                   0.986754        77.36138
2.276                  0.9867674        76.49042
2.28                    0.986952        75.60559
2.284                   0.987264        74.70243
2.288                  0.9876328        73.77706
2.292                  0.9879618        72.82672
2.296                  0.9881343        71.85051
2.3                     0.988025        70.85004
2.304                  0.9875196        69.82979
2.308                  0.9865351        68.79695
2.312                   0.985043        67.76073
2.316                  0.9830854        66.73118
2.32                   0.9807829        65.71736
2.324                  0.9783294        64.72535
2.328                  0.9759704        63.75638
2.332                  0.9739672        62.80524
2.336                  0.9725505        61.85969
2.34                   0.9718705        60.90131
2.344                   0.971952        59.90745
2.348                  0.9726678        58.85456
2.352                  0.9737362         57.7221