! TOUCHSTONE file generated by CST MICROWAVE STUDIO
! Date and time: Tue Jun 14 13:15:14 2022
! Project name: AppElm_antenne_patch_FR4.cst
! Parameters = {L=45; W=58.5; e=0.035; h=1.6; lambda=0.190476; ls=120; w0=2.54; w1=0.847; ws=120; y0=18; y1=23.8}
! Header version: 2018
! Port assignment regex: !\s*Touchstone port\s*([0-9]+)\s*=\s*(CST MWS port|CST DS port)\s*([0-9]+|Zmin|Zmax)\s*\(\"(.*)\"\)(\s*mode\s*([0-9]+))?.*
! Touchstone port assignment:
! Touchstone port 1 = CST MWS port 1 ("")
# GHz S MA R 50
0                      0.9874575              -0
0.004                  0.9881985       -9.976932
0.008                  0.9903197        -19.8609
0.012                  0.9935318       -29.56375
0.016                  0.9974021       -39.00615
0.02                    1.001419       -48.12022
0.024                   1.005066       -56.85058
0.028                    1.00789       -65.15434
0.032                   1.009562       -73.00032
0.036                   1.009912       -80.36813
0.04                    1.008952       -87.24744
0.044                   1.006865       -93.63776
0.048                   1.003981        -99.5485
0.052                   1.000727       -104.9991
0.056                  0.9975669        -110.019
0.06                   0.9949375       -114.6467
0.064                  0.9931841        -118.928
0.068                  0.9925122       -122.9129
0.072                  0.9929608       -126.6517
0.076                  0.9944019       -130.1911
0.08                   0.9965678       -133.5705
0.084                  0.9990966       -136.8192
0.088                   1.001592       -139.9561
0.092                   1.003685       -142.9895
0.096                   1.005084       -145.9191
0.1                     1.005617       -148.7386
0.104                   1.005248       -151.4389
0.108                    1.00408       -154.0106
0.112                   1.002331       -156.4476
0.116                   1.000299       -158.7485
0.12                   0.9983164       -160.9188
0.124                  0.9966943       -162.9704
0.128                  0.9956761       -164.9213
0.132                     0.9954       -166.7932
0.136                  0.9958807       -168.6088
0.14                   0.9970106       -170.3888
0.144                   0.998582       -172.1498
0.148                   1.000324       -173.9017
0.152                    1.00195       -175.6474
0.156                   1.003202       -177.3834
0.16                    1.003893       -179.1008
0.164                   1.003929        179.2123
0.168                   1.003328        177.5689
0.172                   1.002206        175.9803
0.176                   1.000763         174.454
0.18                   0.9992444        172.9925
0.184                  0.9979015        171.5927
0.188                  0.9969519        170.2459
0.192                  0.9965423         168.939
0.196                  0.9967263        167.6571
0.2                     0.997457        166.3852
0.204                  0.9985983        165.1108
0.208                  0.9999486        163.8259
0.212                   1.001278        162.5277
0.216                   1.002364         161.219
0.22                    1.003032        159.9072
0.224                    1.00318        158.6028
0.228                   1.002794        157.3177
0.232                   1.001949         156.063
0.236                   1.000794        154.8471
0.24                   0.9995279        153.6742
0.244                   0.998366        152.5436
0.248                  0.9975022        151.4499
0.252                  0.9970772        150.3834
0.256                  0.9971558        149.3321
0.26                   0.9977159        148.2836
0.264                  0.9986541        147.2272
0.268                  0.9998043        146.1555
0.272                   1.000968        145.0658
0.276                   1.001947        143.9599
0.28                    1.002578        142.8443
0.284                   1.002759        141.7284
0.288                   1.002465        140.6229
0.292                   1.001751        139.5383
0.296                   1.000743        138.4829
0.3                    0.9996152        137.4614
0.304                  0.9985617        136.4739
0.308                  0.9977619        135.5163
0.312                  0.9973505        134.5803
0.316                  0.9973946        133.6556
0.32                   0.9978816        132.7308
0.324                  0.9987236        131.7961
0.328                  0.9997722        130.8446
0.332                   1.000845        129.8735
0.336                   1.001758        128.8845
0.34                    1.002355        127.8833
0.344                   1.002537        126.8786
0.348                   1.002275        125.8808
0.352                   1.001617        124.8998
0.356                   1.000678        123.9436
0.36                   0.9996215         123.017
0.364                  0.9986298        122.1205
0.368                  0.9978747        121.2502
0.372                   0.997486        120.3988
0.376                  0.9975296        119.5563
0.38                    0.997996         118.712
0.384                  0.9988026        117.8566
0.388                  0.9998075        116.9835
0.392                   1.000836        116.0899
0.396                   1.001709        115.1775
0.4                     1.002278        114.2518
0.404                   1.002445        113.3215
0.408                   1.002182        112.3964
0.412                   1.001536        111.4865
0.416                   1.000619        110.5995
0.42                   0.9995922        109.7401
0.424                  0.9986329        108.9087
0.428                  0.9979092        108.1017
0.432                  0.9975476        107.3117
0.436                  0.9976113        106.5288
0.44                    0.998089        105.7427
0.444                  0.9988966        104.9443
0.448                  0.9998926         104.127
0.452                   1.000903        103.2885
0.456                   1.001752        102.4305
0.46                     1.00229        101.5587
0.464                   1.002425        100.6819
0.468                   1.002133           99.81
0.472                   1.001463        98.95281
0.476                   1.000531         98.1181
0.48                   0.9994997        97.31029
0.484                  0.9985487        96.52965
0.488                  0.9978448        95.77221
0.492                  0.9975119        95.03034
0.496                  0.9976091        94.29416
0.5                    0.9981195        93.55317
0.504                  0.9989539        92.79827
0.508                  0.9999653        92.02323
0.512                   1.000976         91.2259
0.516                   1.001808        90.40846
0.52                    1.002316        89.57707
0.524                   1.002408        88.74064
0.528                   1.002067        87.90952
0.532                    1.00135        87.09355
0.536                   1.000381        86.30041
0.54                   0.9993285        85.53428
0.544                  0.9983769        84.79506
0.548                  0.9976941        84.07827
0.552                  0.9974017         83.3758
0.556                  0.9975529        82.67735
0.56                   0.9981225        81.97218
0.564                  0.9990112        81.25117
0.568                   1.000063        80.50832
0.572                   1.001093        79.74189
0.576                   1.001919        78.95459
0.58                    1.002395        78.15321
0.584                   1.002435        77.34724
0.588                    1.00203        76.54744
0.592                   1.001247        75.76383
0.596                   1.000223        75.00407
0.6                    0.9991346        74.27198
0.604                  0.9981747        73.56694
0.608                  0.9975136        72.88377
0.612                    0.99727        72.21365
0.616                  0.9974898        71.54567
0.62                   0.9981361        70.86875
0.624                  0.9990965        70.17369
0.628                   1.000202        69.45474
0.632                   1.001257        68.71073
0.636                   1.002075         67.9451
0.64                     1.00251        67.16544
0.644                   1.002482        66.38199
0.648                   1.001991        65.60608
0.652                   1.001121        64.84798
0.656                    1.00002        64.11528
0.66                   0.9988831        63.41142
0.664                  0.9979091          62.735
0.668                  0.9972723        62.07998
0.672                  0.9970889        61.43661
0.676                  0.9973943         60.7932
0.68                   0.9981376        60.13822
0.684                  0.9991892        59.46235
0.688                   1.000364        58.76021
0.692                   1.001454        58.03126
0.696                   1.002266        57.27993
0.7                     1.002653        56.51473
0.704                   1.002544        55.74687
0.708                   1.001952        54.98831
0.712                   1.000977        54.24969
0.716                   0.999789        53.53845
0.72                   0.9985948         52.8575
0.724                  0.9976071        52.20457
0.728                  0.9970032         51.5725
0.732                  0.9968945        50.95046
0.736                  0.9973043        50.32583
0.74                    0.998164         49.6865
0.744                  0.9993233        49.02311
0.748                   1.000578         48.3307
0.752                   1.001705         47.6096
0.756                   1.002504        46.86532
0.76                    1.002828        46.10761
0.764                   1.002615        45.34876
0.768                   1.001897        44.60151
0.772                   1.000794        43.87684
0.776                  0.9994959        43.18206
0.78                    0.998231        42.51939
0.784                  0.9972236         41.8855
0.788                  0.9966555        41.27192
0.792                  0.9966322        40.66646
0.796                  0.9971621        40.05547
0.8                    0.9981548        39.42624
0.804                  0.9994366        38.76933
0.808                    1.00078        38.08032
0.812                   1.001946        37.36057
0.816                   1.002725        36.61692
0.82                    1.002972         35.8605
0.824                   1.002638        35.10486
0.828                   1.001774        34.36362
0.832                   1.000524        33.64814
0.836                  0.9991055        32.96547
0.84                    0.997767        32.31703
0.844                  0.9967479        31.69816
0.848                  0.9962334        31.09884
0.852                  0.9963212        30.50536
0.856                  0.9970014        29.90282
0.86                   0.9981585        29.27781
0.864                  0.9995894        28.62093
0.868                   1.001042        27.92844
0.872                   1.002256        27.20289
0.876                   1.003013         26.4527
0.88                    1.003174        25.69064
0.884                     1.0027        24.93169
0.888                   1.001668        24.19047
0.892                   1.000251        23.47874
0.896                  0.9986949        22.80323
0.9                    0.9972746         22.1644
0.904                  0.9962447        21.55604
0.908                  0.9957946         20.9663
0.912                  0.9960113        20.37972
0.916                  0.9968638        19.77999
0.92                   0.9982058        19.15298
0.924                  0.9998021        18.48935
0.928                    1.00137        17.78618
0.932                   1.002628        17.04751
0.936                   1.003348        16.28356
0.94                    1.003395        15.50901
0.944                   1.002749        14.74048
0.948                   1.001512        13.99373
0.952                  0.9998937        13.28095
0.956                  0.9981742        12.60848
0.96                   0.9966571        11.97555
0.964                  0.9956155        11.37416
0.968                  0.9952422        10.79031
0.972                  0.9956125        10.20643
0.976                  0.9966689        9.604625
0.98                     0.99823        8.969919
0.984                   1.000022        8.293058
0.988                   1.001727        7.572133
0.992                   1.003039        6.812891
0.996                    1.00372        6.027696
1                       1.003638        5.233413
1.004                   1.002794        4.448583
1.008                   1.001325        3.690281
1.012                  0.9994785        2.971163
1.016                  0.9975758        2.297103
1.02                   0.9959541        1.665911
1.024                  0.9949078         1.06742
1.028                  0.9946331       0.4850953
1.032                  0.9951906       -0.101064
1.036                  0.9964918       -0.710853
1.04                   0.9983129       -1.360184
1.044                   1.000334       -2.058166
1.048                   1.002198       -2.805492
1.052                   1.003568       -3.594369
1.056                   1.004192       -4.409904
1.06                    1.003947       -5.232617
1.064                   1.002858        -6.04169
1.068                   1.001099       -6.818453
1.072                   0.998966       -7.549646
1.076                  0.9968297       -8.229931
1.08                    0.995068       -8.863171
1.084                   0.994001       -9.462043
1.088                  0.9938302       -10.04621
1.092                  0.9945991       -10.63858
1.096                  0.9961825       -11.26125
1.1                    0.9983066       -11.93135
1.104                   1.000597       -12.65775
1.108                   1.002647       -13.43978
1.112                   1.004084       -14.26724
1.116                   1.004642       -15.12225
1.12                    1.004201       -15.98214
1.124                   1.002817       -16.82337
1.128                    1.00071       -17.62525
1.132                   0.998235       -18.37378
1.136                  0.9958204       -19.06418
1.14                   0.9938958       -19.70232
1.144                  0.9928135       -20.30407
1.148                  0.9927831       -20.89278
1.152                  0.9938278       -21.49512
1.156                  0.9957778       -22.13606
1.16                   0.9982976       -22.83423
1.164                   1.000945       -23.59849
1.168                    1.00325       -24.42646
1.172                   1.004796       -25.30499
1.176                   1.005292       -26.21249
1.18                    1.004626       -27.12243
1.184                   1.002885        -28.0077
1.188                   1.000347       -28.84506
1.192                  0.9974368       -29.61923
1.196                  0.9946595       -30.32599
1.2                    0.9925101       -30.97355
1.204                  0.9913854       -31.58164
1.208                  0.9915079       -32.17839
1.212                   0.992879       -32.79521
1.216                  0.9952747       -33.46089
1.22                   0.9982819       -34.19617
1.224                   1.001372          -35.01
1.228                   1.003994       -35.89799
1.232                   1.005669        -36.8434
1.236                   1.006075       -37.81994
1.24                    1.005101       -38.79605
1.244                   1.002874       -39.73988
1.248                  0.9997438       -40.62454
1.252                  0.9962273       -41.43287
1.256                  0.9929302       -42.16096
1.26                   0.9904396       -42.81984
1.264                  0.9892173       -43.43427
1.268                  0.9895103       -44.03877
1.272                  0.9912968       -44.67139
1.276                  0.9942848       -45.36639
1.28                   0.9979602       -46.14779
1.284                   1.001677       -47.02501
1.288                    1.00477       -47.99143
1.292                   1.006671       -49.02571
1.296                   1.007006        -50.0954
1.3                     1.005658       -51.16208
1.304                     1.0028       -52.18724
1.308                  0.9988711       -53.13856
1.312                  0.9945143       -53.99562
1.316                  0.9904767       -54.75433
1.32                   0.9874798       -55.42912
1.324                  0.9860872       -56.05149
1.328                  0.9865913       -56.66514
1.332                  0.9889482       -57.31786
1.336                  0.9927763        -58.0523
1.34                   0.9974187       -58.89782
1.344                   1.002059       -59.86522
1.348                   1.005863       -60.94521
1.352                    1.00812       -62.11029
1.356                   1.008364       -63.31939
1.36                    1.006455       -64.52396
1.364                   1.002614        -65.6753
1.368                  0.9974024       -66.73202
1.372                  0.9916466        -67.6675
1.376                  0.9863125       -68.47591
1.38                   0.9823422       -69.17551
1.384                  0.9804786       -69.80758
1.388                  0.9811132        -70.4301
1.392                  0.9841937       -71.10709
1.396                  0.9892177       -71.89584
1.4                    0.9953139       -72.83589
1.404                   1.001394       -73.94192
1.408                   1.006341       -75.20195
1.412                   1.009194       -76.58003
1.416                   1.009308       -78.02207
1.42                    1.006466       -79.46355
1.424                   1.000931        -80.8384
1.428                  0.9934354       -82.08856
1.432                  0.9850969        -83.1742
1.436                  0.9772613       -84.08322
1.44                   0.9712842       -84.83773
1.444                   0.968278       -85.49488
1.448                  0.9688749       -86.13927
1.452                  0.9730684       -86.86742
1.456                  0.9801798        -87.7683
1.46                   0.9889619       -88.90541
1.464                  0.9978131       -90.30598
1.468                   1.005045       -91.95822
1.472                   1.009151       -93.81528
1.476                    1.00904       -95.80318
1.48                    1.004207       -97.83023
1.484                  0.9948441       -99.79757
1.488                  0.9818689       -101.6111
1.492                  0.9668702       -103.1963
1.496                  0.9519383       -104.5155
1.5                    0.9393704       -105.5863
1.504                  0.9312578       -106.4939
1.508                  0.9290177       -107.3884
1.512                  0.9329912       -108.4625
1.516                  0.9422461       -109.9133
1.52                   0.9546542        -111.904
1.524                  0.9672048       -114.5397
1.528                  0.9764287       -117.8637
1.532                  0.9788141       -121.8689
1.536                   0.971141       -126.5148
1.54                   0.9507138       -131.7438
1.544                  0.9155067        -137.494
1.548                  0.8642418       -143.7077
1.552                  0.7964177       -150.3385
1.556                  0.7123028       -157.3596
1.56                   0.6129004        -164.778
1.564                  0.4998982       -172.6725
1.568                  0.3756213         178.687
1.572                  0.2430986        168.3077
1.576                  0.1074304        149.8635
1.58                  0.05390156        23.51401
1.584                  0.1843675       -14.38704
1.588                  0.3191065       -26.55958
1.592                  0.4472494       -35.74418
1.596                  0.5652962       -43.91738
1.6                     0.670656       -51.53817
1.604                  0.7613757       -58.74332
1.608                   0.836163       -65.56399
1.612                  0.8944381       -71.98563
1.616                  0.9363753       -77.96938
1.62                   0.9629223         -83.462
1.624                  0.9757865       -88.40274
1.628                  0.9773803       -92.73117
1.632                  0.9707087        -96.3978
1.636                  0.9591771       -99.37891
1.64                   0.9463054       -101.6936
1.644                  0.9353467        -103.419
1.648                  0.9288575       -104.6937
1.652                  0.9283225       -105.7033
1.656                  0.9339621       -106.6471
1.66                   0.9448094       -107.6979
1.664                  0.9590303       -108.9714
1.668                  0.9743758       -110.5149
1.672                   0.988626       -112.3144
1.676                  0.9999379       -114.3104
1.68                    1.007068       -116.4165
1.684                   1.009476       -118.5352
1.688                   1.007333       -120.5702
1.692                   1.001452       -122.4384
1.696                  0.9931468       -124.0782
1.7                    0.9840317       -125.4593
1.704                  0.9757763       -126.5883
1.708                  0.9698355         -127.51
1.712                  0.9672047       -128.3011
1.716                  0.9682555       -129.0558
1.72                   0.9726956       -129.8669
1.724                  0.9796609       -130.8076
1.728                   0.987912       -131.9198
1.732                   0.996081       -133.2102
1.736                   1.002908       -134.6541
1.74                     1.00743       -136.2035
1.744                   1.009104       -137.7965
1.748                   1.007858       -139.3673
1.752                   1.004078        -140.855
1.756                  0.9985331        -142.212
1.76                   0.9922465       -143.4108
1.764                  0.9863327       -144.4486
1.768                  0.9818107       -145.3486
1.772                  0.9794336       -146.1565
1.776                  0.9795593       -146.9324
1.78                    0.982099       -147.7386
1.784                  0.9865519       -148.6285
1.788                  0.9921137       -149.6364
1.792                  0.9978354       -150.7736
1.796                   1.002791       -152.0284
1.8                     1.006226       -153.3704
1.804                   1.007665       -154.7566
1.808                   1.006973       -156.1385
1.812                   1.004358       -157.4698
1.816                   1.000331       -158.7124
1.82                    0.995617       -159.8424
1.824                  0.9910364       -160.8541
1.828                  0.9873684       -161.7609
1.832                  0.9852186       -162.5937
1.836                  0.9849175        -163.395
1.84                   0.9864676       -164.2113
1.844                  0.9895543       -165.0841
1.848                  0.9936134       -166.0425
1.852                  0.9979404       -167.0991
1.856                   1.001816       -168.2489
1.86                    1.004627       -169.4715
1.864                   1.005956       -170.7354
1.868                   1.005642       -172.0035
1.872                   1.003792       -173.2388
1.876                   1.000763       -174.4099
1.88                   0.9970917       -175.4959
1.884                  0.9934118       -176.4894
1.888                  0.9903447       -177.3982
1.892                  0.9883955       -178.2442
1.896                  0.9878683        -179.059
1.9                    0.9888173       -179.8787
1.904                  0.9910433        179.2631
1.908                  0.9941383        178.3412
1.912                  0.9975621        177.3426
1.916                    1.00074        176.2683
1.92                    1.003161         175.132
1.924                   1.004452        173.9571
1.928                    1.00444        172.7727
1.932                   1.003165         171.609
1.936                   1.000872        170.4924
1.94                   0.9979669        169.4418
1.944                  0.9949463        168.4653
1.948                  0.9923166        167.5592
1.952                  0.9905082        166.7083
1.956                  0.9898043        165.8887
1.96                   0.9902946        165.0719
1.964                  0.9918652        164.2303
1.968                  0.9942235        163.3417
1.972                  0.9969553        162.3932
1.976                  0.9995978        161.3827
1.98                    1.001719        160.3187
1.984                   1.002986        159.2184
1.988                   1.003214        158.1046
1.992                   1.002392        157.0018
1.996                   1.000678        155.9327
2                      0.9983701        154.9143
2.004                  0.9958574        153.9557
2.008                  0.9935538        153.0564
2.012                  0.9918307        152.2065
2.016                   0.990955        151.3883
2.02                   0.9910464        150.5797
2.024                  0.9920616        149.7575
2.028                  0.9938052        148.9023
2.032                  0.9959677         148.001
2.036                  0.9981807        147.0489
2.04                     1.00008          146.05
2.044                   1.001363        145.0162
2.048                   1.001835        143.9646
2.052                   1.001435         142.915
2.056                   1.000243        141.8865
2.06                   0.9984623        140.8951
2.064                  0.9963861        139.9508
2.068                  0.9943476        139.0561
2.072                  0.9926674        138.2059
2.076                  0.9916011        137.3884
2.08                   0.9912999        136.5867
2.084                  0.9917873        135.7821
2.088                  0.9929589        134.9572
2.092                  0.9946028        134.0986
2.096                  0.9964382         133.199
2.1                    0.9981613        132.2581
2.104                  0.9994939        131.2823
2.108                   1.000226        130.2834
2.112                   1.000246        129.2766
2.116                  0.9995527        128.2783
2.12                    0.998255        127.3034
2.124                  0.9965523        126.3631
2.128                  0.9947018        125.4636
2.132                  0.9929803        124.6047
2.136                  0.9916394        123.7802
2.14                   0.9908684        122.9789
2.144                  0.9907649         122.186
2.148                  0.9913221        121.3859
2.152                  0.9924301        120.5643
2.156                  0.9938965        119.7109
2.16                   0.9954761        118.8203
2.164                  0.9969096         117.893
2.168                  0.9979621         116.935
2.172                  0.9984567        115.9569
2.176                     0.9983        114.9722
2.18                   0.9974943        113.9952
2.184                  0.9961368        113.0392
2.188                   0.994406        112.1146
2.192                  0.9925369        111.2273
2.196                  0.9907864        110.3775
2.2                    0.9893962        109.5598
2.204                  0.9885574        108.7637
2.208                  0.9883792        107.9753
2.212                  0.9888717        107.1787
2.216                  0.9899426        106.3591
2.22                   0.9914085        105.5047
2.224                  0.9930216        104.6086
2.228                  0.9945039        103.6696
2.232                  0.9955888        102.6929
2.236                  0.9960597        101.6888
2.24                   0.9957826        100.6719
2.244                  0.9947292        99.65867
2.248                  0.9929847        98.66541
2.252                  0.9907404        97.70577
2.256                  0.9882719        96.78849
2.26                   0.9859007        95.91577
2.264                  0.9839485        95.08223
2.268                  0.9826855        94.27525
2.272                  0.9822846        93.47634
2.276                   0.982786        92.66377
2.28                   0.9840838        91.81588
2.284                  0.9859338        90.91469
2.288                  0.9879854        89.94874
2.292                  0.9898315        88.91526
2.296                  0.9910695        87.82067
2.3                    0.9913639        86.67993
2.304                  0.9905016        85.51459
2.308                  0.9884319        84.34984
2.312                  0.9852859        83.21095
2.316                  0.9813693        82.11921
2.32                   0.9771287        81.08812
2.324                  0.9730904        80.12001
2.328                  0.9697791        79.20411
2.332                  0.9676281        78.31669
2.336                  0.9668934        77.42358
2.34                   0.9675924        76.48512
2.344                    0.96948        75.46256
2.348                  0.9720693        74.32459
2.352                  0.9746963        73.05258